! TOUCHSTONE file generated by CST MICROWAVE STUDIO
! Date and time: Fri May  6 09:22:53 2022
! Project name: ant1_ceramic_sweep_10porcent.cst
! Parameters = {e=0.035; h=1.6; i=0.8; l1=0.5; l2=17; ls=80.8; wl=1.7; ws=30}
! Header version: 2018
! Port assignment regex: !\s*Touchstone port\s*([0-9]+)\s*=\s*(CST MWS port|CST DS port)\s*([0-9]+|Zmin|Zmax)\s*\(\"(.*)\"\)(\s*mode\s*([0-9]+))?.*
! Touchstone port assignment:
! Touchstone port 1 = CST MWS port 1 ("")
# GHz S DB R 50
0                  -0.0001097572              -0
0.004              -0.0001225749     -0.06014104
0.008              -0.0001610308      -0.1202741
0.012              -0.0002256507      -0.1803913
0.016              -0.0003143774      -0.2404848
0.02               -0.0004298185      -0.3005467
0.024              -0.0005694095      -0.3605692
0.028              -0.0007336975      -0.4205447
0.032              -0.0009232348      -0.4804658
0.036               -0.001134954      -0.5403251
0.04                -0.001369417      -0.6001153
0.044               -0.001628225      -0.6598296
0.048               -0.001907806       -0.719461
0.052               -0.002209252      -0.7790032
0.056                  -0.002529      -0.8384495
0.06                -0.002871254      -0.8977942
0.064               -0.003231423      -0.9570312
0.068                -0.00360802       -1.016155
0.072               -0.004002673       -1.075161
0.076               -0.004412348       -1.134044
0.08                -0.004837638       -1.192799
0.084                -0.00527655       -1.251422
0.088               -0.005727607        -1.30991
0.092               -0.006190373       -1.368259
0.096               -0.006663369       -1.426466
0.1                 -0.007144606       -1.484528
0.104               -0.007634679       -1.542444
0.108               -0.008131076        -1.60021
0.112               -0.008633873       -1.657827
0.116               -0.009138484       -1.715293
0.12                -0.009646533       -1.772607
0.124                -0.01015654       -1.829769
0.128                 -0.0106665        -1.88678
0.132                -0.01117544       -1.943641
0.136                -0.01168082       -2.000352
0.14                 -0.01218376       -2.056916
0.144                -0.01268066       -2.113333
0.148                -0.01317211       -2.169608
0.152                 -0.0136545       -2.225743
0.156                -0.01412893       -2.281741
0.16                 -0.01459232       -2.337605
0.164                -0.01504469       -2.393341
0.168                -0.01548504       -2.448953
0.172                -0.01591181       -2.504446
0.176                -0.01632349       -2.559824
0.18                  -0.0167185       -2.615095
0.184                -0.01709686       -2.670263
0.188                -0.01745856       -2.725336
0.192                -0.01780047        -2.78032
0.196                -0.01812308       -2.835223
0.2                  -0.01842431       -2.890051
0.204                -0.01870412       -2.944812
0.208                -0.01896298       -2.999516
0.212                -0.01919774       -3.054168
0.216                -0.01941043       -3.108778
0.22                 -0.01959786       -3.163354
0.224                -0.01976154       -3.217906
0.228                -0.01990034       -3.272442
0.232                -0.02001316       -3.326972
0.236                -0.02010094       -3.381504
0.24                 -0.02016257       -3.436048
0.244                -0.02019794       -3.490614
0.248                -0.02020695        -3.54521
0.252                -0.02019052       -3.599847
0.256                -0.02014751       -3.654533
0.26                  -0.0200778        -3.70928
0.264                -0.01998283       -3.764094
0.268                -0.01986246       -3.818987
0.272                -0.01971603       -3.873969
0.276                -0.01954394       -3.929046
0.28                 -0.01934864       -3.984231
0.284                 -0.0191279        -4.03953
0.288                -0.01888419       -4.094952
0.292                -0.01861784       -4.150508
0.296                -0.01832874       -4.206204
0.3                  -0.01801825        -4.26205
0.304                -0.01768624       -4.318053
0.308                -0.01733462        -4.37422
0.312                -0.01696321        -4.43056
0.316                  -0.016575       -4.487079
0.32                 -0.01616928       -4.543785
0.324                -0.01574747       -4.600682
0.328                -0.01531041       -4.657779
0.332                -0.01486005       -4.715081
0.336                -0.01439672       -4.772592
0.34                 -0.01392184       -4.830318
0.344                -0.01343681       -4.888263
0.348                -0.01294302       -4.946432
0.352                -0.01244033       -5.004828
0.356                -0.01193222       -5.063455
0.36                 -0.01141906       -5.122316
0.364                -0.01090279       -5.181413
0.368                -0.01038276       -5.240748
0.372               -0.009862453       -5.300324
0.376               -0.009342287       -5.360139
0.38                -0.008824719       -5.420196
0.384               -0.008309104       -5.480496
0.388                -0.00779952       -5.541037
0.392               -0.007295313       -5.601819
0.396                -0.00679693        -5.66284
0.4                 -0.006307372       -5.724101
0.404               -0.005828653       -5.785597
0.408               -0.005360192       -5.847326
0.412               -0.004905003       -5.909288
0.416               -0.004463563       -5.971477
0.42                -0.004035839        -6.03389
0.424               -0.003624895       -6.096524
0.428               -0.003231216       -6.159373
0.432               -0.002855825       -6.222433
0.436               -0.002498184       -6.285698
0.44                -0.002162445       -6.349165
0.444               -0.001848621       -6.412826
0.448               -0.001555174       -6.476674
0.452               -0.001284696       -6.540706
0.456                -0.00103985       -6.604912
0.46               -0.0008185825       -6.669287
0.464              -0.0006219932       -6.733824
0.468              -0.0004522293       -6.798514
0.472              -0.0003082898       -6.863351
0.476              -0.0001918495       -6.928326
0.48               -0.0001019416       -6.993432
0.484              -3.970791e-05       -7.058661
0.488              -6.793634e-06       -7.124004
0.492               -2.02156e-07       -7.189454
0.496              -2.317208e-05       -7.255002
0.5                -7.481505e-05       -7.320639
0.504              -0.0001552186       -7.386358
0.508              -0.0002614285       -7.452149
0.512              -0.0003977178       -7.518006
0.516              -0.0005632493       -7.583918
0.52               -0.0007554823        -7.64988
0.524              -0.0009752185        -7.71588
0.528               -0.001222511       -7.781914
0.532                -0.00149602       -7.847971
0.536               -0.001795364       -7.914045
0.54                -0.002120683        -7.98013
0.544               -0.002471167       -8.046215
0.548               -0.002845355       -8.112296
0.552               -0.003241918       -8.178363
0.556               -0.003662499       -8.244414
0.56                -0.004104205       -8.310439
0.564               -0.004565591       -8.376433
0.568               -0.005047325       -8.442392
0.572               -0.005548008        -8.50831
0.576               -0.006063607       -8.574181
0.58                 -0.00659795           -8.64
0.584               -0.007146402       -8.705766
0.588               -0.007709114       -8.771474
0.592               -0.008283128       -8.837117
0.596               -0.008868975       -8.902698
0.6                 -0.009465768       -8.968211
0.604                 -0.0100699       -9.033656
0.608                -0.01068197       -9.099031
0.612                -0.01129899       -9.164332
0.616                -0.01191879       -9.229563
0.62                 -0.01254359       -9.294722
0.624                -0.01316921       -9.359809
0.628                -0.01379456       -9.424827
0.632                -0.01441816       -9.489775
0.636                -0.01503783       -9.554656
0.64                 -0.01565458       -9.619474
0.644                -0.01626577        -9.68423
0.648                 -0.0168677       -9.748926
0.652                 -0.0174623        -9.81357
0.656                -0.01804639       -9.878164
0.66                 -0.01861933       -9.942712
0.664                -0.01917882       -10.00722
0.668                -0.01972426        -10.0717
0.672                -0.02025493       -10.13615
0.676                -0.02076856       -10.20058
0.68                 -0.02126492         -10.265
0.684                 -0.0217412       -10.32941
0.688                -0.02219771       -10.39382
0.692                 -0.0226346       -10.45825
0.696                -0.02304757       -10.52269
0.7                  -0.02343829       -10.58717
0.704                -0.02380445       -10.65168
0.708                -0.02414727       -10.71624
0.712                -0.02446383       -10.78086
0.716                -0.02475425       -10.84555
0.72                 -0.02501766       -10.91031
0.724                -0.02525472       -10.97517
0.728                 -0.0254635       -11.04013
0.732                -0.02564468        -11.1052
0.736                -0.02579769        -11.1704
0.74                 -0.02592123       -11.23573
0.744                -0.02601635       -11.30121
0.748                -0.02608165       -11.36684
0.752                -0.02612014       -11.43265
0.756                -0.02612893       -11.49864
0.76                 -0.02610903       -11.56482
0.764                -0.02606102       -11.63121
0.768                -0.02598443       -11.69782
0.772                -0.02588087       -11.76465
0.776                 -0.0257504       -11.83173
0.78                 -0.02559302       -11.89905
0.784                -0.02540974       -11.96665
0.788                -0.02520122       -12.03451
0.792                -0.02496795       -12.10266
0.796                -0.02471156       -12.17111
0.8                  -0.02443359       -12.23986
0.804                -0.02413258       -12.30893
0.808                 -0.0238111       -12.37832
0.812                -0.02347082       -12.44805
0.816                -0.02311176       -12.51813
0.82                  -0.0227361       -12.58855
0.824                -0.02234492       -12.65934
0.828                -0.02193876        -12.7305
0.832                -0.02152037       -12.80204
0.836                 -0.0210904       -12.87396
0.84                 -0.02065096       -12.94627
0.844                 -0.0202022       -13.01897
0.848                -0.01974787       -13.09209
0.852                -0.01928664        -13.1656
0.856                -0.01882325       -13.23953
0.86                 -0.01835792       -13.31388
0.864                -0.01789181       -13.38865
0.868                -0.01742734       -13.46384
0.872                -0.01696626       -13.53945
0.876                -0.01650921        -13.6155
0.88                 -0.01605921       -13.69198
0.884                 -0.0156185       -13.76888
0.888                -0.01518692       -13.84622
0.892                -0.01476741       -13.92399
0.896                -0.01436078       -14.00219
0.9                  -0.01397049       -14.08082
0.904                -0.01359648       -14.15987
0.908                -0.01324059       -14.23936
0.912                -0.01290446       -14.31926
0.916                -0.01259096       -14.39959
0.92                 -0.01230022       -14.48033
0.924                -0.01203299       -14.56148
0.928                -0.01179365       -14.64304
0.932                -0.01158054       -14.72501
0.936                -0.01139639       -14.80737
0.94                 -0.01124305       -14.89012
0.944                -0.01112044       -14.97326
0.948                -0.01103108       -15.05677
0.952                -0.01097561       -15.14066
0.956                -0.01095407       -15.22491
0.96                 -0.01096832       -15.30952
0.964                -0.01101846       -15.39448
0.968                -0.01110676       -15.47978
0.972                -0.01123346        -15.5654
0.976                -0.01139925       -15.65136
0.98                 -0.01160328       -15.73762
0.984                -0.01184797        -15.8242
0.988                -0.01213246       -15.91106
0.992                -0.01245856       -15.99822
0.996                -0.01282501       -16.08566
1                    -0.01323269       -16.17336
1.004                -0.01368179       -16.26132
1.008                -0.01417109       -16.34953
1.012                 -0.0147015       -16.43798
1.016                -0.01527415       -16.52667
1.02                 -0.01588644       -16.61558
1.024                -0.01653866       -16.70469
1.028                -0.01723158         -16.794
1.032                -0.01796223       -16.88353
1.036                -0.01873319       -16.97323
1.04                 -0.01954085       -17.06314
1.044                -0.02038621       -17.15319
1.048                -0.02126786        -17.2434
1.052                -0.02218413       -17.33381
1.056                -0.02313542       -17.42432
1.06                 -0.02411933         -17.515
1.064                 -0.0251358       -17.60581
1.068                -0.02618246       -17.69674
1.072                -0.02725877       -17.78782
1.076                -0.02836335       -17.87899
1.08                 -0.02949394        -17.9703
1.084                -0.03065012       -18.06174
1.088                -0.03182947       -18.15327
1.092                -0.03303104       -18.24487
1.096                -0.03425334       -18.33664
1.1                   -0.0354938       -18.42847
1.104                -0.03675146       -18.52043
1.108                -0.03802437        -18.6125
1.112                -0.03931175       -18.70465
1.116                -0.04060982       -18.79692
1.12                  -0.0419177       -18.88929
1.124                -0.04323339       -18.98174
1.128                -0.04455678       -19.07436
1.132                -0.04588354       -19.16707
1.136                -0.04721241       -19.25991
1.14                 -0.04854271       -19.35287
1.144                -0.04987172       -19.44597
1.148                -0.05119809        -19.5392
1.152                -0.05251939       -19.63258
1.156                -0.05383467       -19.72612
1.16                 -0.05514125       -19.81983
1.164                -0.05643936        -19.9137
1.168                -0.05772458       -20.00777
1.172                -0.05899729       -20.10202
1.176                -0.06025605       -20.19649
1.18                 -0.06149835       -20.29117
1.184                -0.06272356       -20.38608
1.188                -0.06392994       -20.48124
1.192                -0.06511531       -20.57666
1.196                -0.06628057       -20.67235
1.2                  -0.06742355       -20.76834
1.204                -0.06854269       -20.86462
1.208                  -0.069638       -20.96123
1.212                -0.07070742       -21.05817
1.216                -0.07175169       -21.15546
1.22                 -0.07276746       -21.25313
1.224                -0.07375806       -21.35118
1.228                -0.07472077       -21.44965
1.232                -0.07565481       -21.54854
1.236                -0.07656129       -21.64787
1.24                 -0.07743872       -21.74766
1.244                -0.07828768       -21.84794
1.248                -0.07910876       -21.94872
1.252                -0.07990155       -22.05002
1.256                -0.08066696       -22.15186
1.26                 -0.08140424       -22.25426
1.264                -0.08211591       -22.35725
1.268                -0.08280002       -22.46082
1.272                 -0.0834598       -22.56503
1.276                -0.08409539       -22.66987
1.28                 -0.08470669       -22.77537
1.284                 -0.0852961       -22.88155
1.288                -0.08586453       -22.98842
1.292                -0.08641378       -23.09601
1.296                 -0.0869451       -23.20434
1.3                  -0.08745962       -23.31342
1.304                -0.08795964       -23.42327
1.308                -0.08844653       -23.53392
1.312                -0.08892175       -23.64537
1.316                -0.08938852       -23.75764
1.32                 -0.08984861       -23.87075
1.324                -0.09030264       -23.98472
1.328                -0.09075522       -24.09956
1.332                -0.09120719       -24.21529
1.336                -0.09166202       -24.33192
1.34                 -0.09212057       -24.44946
1.344                -0.09258749       -24.56794
1.348                -0.09306441       -24.68736
1.352                -0.09355258       -24.80772
1.356                -0.09405751       -24.92906
1.36                 -0.09458133       -25.05137
1.364                -0.09512595       -25.17466
1.368                -0.09569465       -25.29895
1.372                -0.09628918       -25.42424
1.376                -0.09691513       -25.55054
1.38                 -0.09757398       -25.67787
1.384                -0.09826716       -25.80621
1.388                 -0.0990001       -25.93559
1.392                -0.09977541         -26.066
1.396                 -0.1005952       -26.19746
1.4                   -0.1014629       -26.32995
1.404                 -0.1023815        -26.4635
1.408                 -0.1033544       -26.59809
1.412                 -0.1043833       -26.73373
1.416                 -0.1054716       -26.87042
1.42                  -0.1066227       -27.00816
1.424                 -0.1078394       -27.14696
1.428                 -0.1091243        -27.2868
1.432                 -0.1104796       -27.42769
1.436                 -0.1119087       -27.56962
1.44                  -0.1134138        -27.7126
1.444                 -0.1149966       -27.85661
1.448                 -0.1166622       -28.00166
1.452                 -0.1184097       -28.14774
1.456                  -0.120243       -28.29484
1.46                  -0.1221638       -28.44297
1.464                  -0.124176       -28.59211
1.468                 -0.1262795       -28.74225
1.472                 -0.1284774        -28.8934
1.476                 -0.1307705       -29.04554
1.48                  -0.1331599       -29.19866
1.484                 -0.1356498       -29.35277
1.488                 -0.1382399       -29.50785
1.492                 -0.1409323        -29.6639
1.496                 -0.1437277       -29.82091
1.5                   -0.1466273       -29.97886
1.504                 -0.1496321       -30.13775
1.508                 -0.1527432       -30.29758
1.512                 -0.1559611       -30.45834
1.516                 -0.1592873       -30.62001
1.52                  -0.1627216        -30.7826
1.524                 -0.1662642        -30.9461
1.528                 -0.1699155       -31.11049
1.532                  -0.173677       -31.27577
1.536                 -0.1775471       -31.44194
1.54                  -0.1815272         -31.609
1.544                 -0.1856153       -31.77692
1.548                 -0.1898139       -31.94573
1.552                 -0.1941199       -32.11539
1.556                 -0.1985339       -32.28592
1.56                  -0.2030543       -32.45731
1.564                 -0.2076831       -32.62957
1.568                 -0.2124164       -32.80268
1.572                 -0.2172547       -32.97664
1.576                 -0.2221989       -33.15148
1.58                  -0.2272441       -33.32716
1.584                 -0.2323923        -33.5037
1.588                 -0.2376415       -33.68112
1.592                 -0.2429899        -33.8594
1.596                 -0.2484359       -34.03855
1.6                   -0.2539784       -34.21859
1.604                 -0.2596178       -34.39952
1.608                 -0.2653497       -34.58134
1.612                 -0.2711756       -34.76407
1.616                 -0.2770912       -34.94772
1.62                  -0.2830962        -35.1323
1.624                 -0.2891898       -35.31782
1.628                 -0.2953691        -35.5043
1.632                 -0.3016335       -35.69176
1.636                 -0.3079826       -35.88022
1.64                  -0.3144106       -36.06968
1.644                 -0.3209214       -36.26017
1.648                 -0.3275119       -36.45173
1.652                 -0.3341791       -36.64435
1.656                 -0.3409222       -36.83809
1.66                  -0.3477419       -37.03294
1.664                 -0.3546354       -37.22895
1.668                 -0.3616024       -37.42615
1.672                 -0.3686429       -37.62456
1.676                 -0.3757529       -37.82422
1.68                  -0.3829344       -38.02515
1.684                 -0.3901881        -38.2274
1.688                   -0.39751         -38.431
1.692                 -0.4049033       -38.63598
1.696                 -0.4123663       -38.84239
1.7                    -0.419898       -39.05025
1.704                 -0.4275012       -39.25962
1.708                 -0.4351753       -39.47055
1.712                 -0.4429205       -39.68305
1.716                 -0.4507379       -39.89719
1.72                  -0.4586312       -40.11303
1.724                 -0.4665972       -40.33057
1.728                 -0.4746413        -40.5499
1.732                 -0.4827635       -40.77104
1.736                 -0.4909655       -40.99406
1.74                  -0.4992522       -41.21901
1.744                 -0.5076235       -41.44592
1.748                  -0.516085       -41.67487
1.752                  -0.524637       -41.90589
1.756                 -0.5332845       -42.13905
1.76                  -0.5420319       -42.37439
1.764                  -0.550883       -42.61198
1.768                 -0.5598412       -42.85186
1.772                 -0.5689117        -43.0941
1.776                 -0.5781008       -43.33876
1.78                  -0.5874113       -43.58588
1.784                 -0.5968516       -43.83552
1.788                 -0.6064259       -44.08774
1.792                 -0.6161407       -44.34261
1.796                 -0.6260035       -44.60016
1.8                   -0.6360209       -44.86047
1.804                 -0.6461996       -45.12358
1.808                 -0.6565477       -45.38956
1.812                 -0.6670724       -45.65847
1.816                 -0.6777831       -45.93035
1.82                  -0.6886884       -46.20528
1.824                 -0.6997961        -46.4833
1.828                 -0.7111156       -46.76446
1.832                 -0.7226587       -47.04883
1.836                 -0.7344319       -47.33645
1.84                  -0.7464473       -47.62738
1.844                 -0.7587162       -47.92168
1.848                  -0.771247       -48.21941
1.852                 -0.7840539        -48.5206
1.856                 -0.7971459       -48.82531
1.86                  -0.8105357        -49.1336
1.864                 -0.8242335        -49.4455
1.868                 -0.8382556       -49.76108
1.872                 -0.8526113       -50.08037
1.876                  -0.867315       -50.40344
1.88                   -0.882378       -50.73031
1.884                 -0.8978161       -51.06104
1.888                 -0.9136429       -51.39567
1.892                 -0.9298702       -51.73425
1.896                 -0.9465139       -52.07681
1.9                   -0.9635883        -52.4234
1.904                 -0.9811079       -52.77407
1.908                 -0.9990882       -53.12884
1.912                  -1.017543       -53.48774
1.916                  -1.036491       -53.85084
1.92                   -1.055945       -54.21816
1.924                  -1.075921       -54.58972
1.928                  -1.096436       -54.96557
1.932                  -1.117505       -55.34574
1.936                  -1.139148       -55.73027
1.94                   -1.161378       -56.11917
1.944                  -1.184215        -56.5125
1.948                  -1.207674       -56.91026
1.952                  -1.231773       -57.31249
1.956                   -1.25653       -57.71923
1.96                   -1.281963       -58.13049
1.964                  -1.308089       -58.54628
1.968                  -1.334927       -58.96667
1.972                  -1.362496       -59.39164
1.976                  -1.390814       -59.82125
1.98                   -1.419899        -60.2555
1.984                  -1.449772       -60.69442
1.988                   -1.48045       -61.13803
1.992                  -1.511953       -61.58635
1.996                  -1.544302       -62.03941
2                      -1.577516       -62.49722
2.004                  -1.611614       -62.95982
2.008                  -1.646618       -63.42719
2.012                  -1.682547        -63.8994
2.016                  -1.719422       -64.37643
2.02                   -1.757265       -64.85834
2.024                  -1.796096       -65.34511
2.028                  -1.835936       -65.83677
2.032                  -1.876808       -66.33336
2.036                  -1.918733       -66.83491
2.04                   -1.961734       -67.34141
2.044                  -2.005831        -67.8529
2.048                   -2.05105        -68.3694
2.052                  -2.097413       -68.89093
2.056                  -2.144941       -69.41752
2.06                   -2.193661        -69.9492
2.064                  -2.243594         -70.486
2.068                  -2.294765       -71.02794
2.072                  -2.347201       -71.57505
2.076                  -2.400925       -72.12737
2.08                   -2.455961       -72.68492
2.084                  -2.512338       -73.24775
2.088                  -2.570081       -73.81591
2.092                  -2.629214        -74.3894
2.096                   -2.68977        -74.9683
2.1                     -2.75177       -75.55264
2.104                  -2.815246       -76.14247
2.108                  -2.880227       -76.73781
2.112                   -2.94674       -77.33879
2.116                  -3.014816       -77.94539
2.12                   -3.084485       -78.55772
2.124                  -3.155778       -79.17582
2.128                  -3.228728       -79.79977
2.132                  -3.303366       -80.42967
2.136                  -3.379725       -81.06554
2.14                   -3.457839       -81.70751
2.144                  -3.537744       -82.35567
2.148                  -3.619474       -83.01011
2.152                  -3.703066       -83.67093
2.156                  -3.788558       -84.33824
2.16                   -3.875987       -85.01216
2.164                  -3.965392       -85.69282
2.168                  -4.056814       -86.38035
2.172                  -4.150295       -87.07489
2.176                  -4.245876        -87.7766
2.18                   -4.343603       -88.48566
2.184                  -4.443517        -89.2022
2.188                  -4.545669       -89.92644
2.192                  -4.650103       -90.65859
2.196                   -4.75687       -91.39884
2.2                    -4.866019       -92.14743
2.204                  -4.977605        -92.9046
2.208                  -5.091676        -93.6706
2.212                  -5.208293       -94.44573
2.216                   -5.32751        -95.2303
2.22                   -5.449385        -96.0246
2.224                  -5.573983       -96.82899
2.228                  -5.701363       -97.64383
2.232                  -5.831589       -98.46954
2.236                  -5.964729       -99.30651
2.24                   -6.100851       -100.1552
2.244                  -6.240027       -101.0161
2.248                  -6.382328       -101.8898
2.252                  -6.527831       -102.7768
2.256                  -6.676614       -103.6777
2.26                   -6.828756       -104.5932
2.264                  -6.984338       -105.5239
2.268                  -7.143445       -106.4707
2.272                  -7.306166       -107.4344
2.276                  -7.472586       -108.4158
2.28                   -7.642798       -109.4159
2.284                  -7.816895       -110.4358
2.288                   -7.99497       -111.4765
2.292                  -8.177118       -112.5392
2.296                  -8.363437       -113.6254
2.3                    -8.554022       -114.7363
2.304                  -8.748973       -115.8736
2.308                  -8.948382       -117.0389
2.312                  -9.152346       -118.2341
2.316                  -9.360954       -119.4611
2.32                   -9.574291        -120.722
2.324                   -9.79244       -122.0193
2.328                  -10.01547       -123.3554
2.332                  -10.24344       -124.7331
2.336                  -10.47639       -126.1555
2.34                   -10.71436       -127.6259
2.344                  -10.95735       -129.1477
2.348                  -11.20533        -130.725
2.352                  -11.45824       -132.3618
2.356                  -11.71597       -134.0628
2.36                   -11.97838       -135.8329
2.364                  -12.24523       -137.6775
2.368                  -12.51622       -139.6021
2.372                  -12.79096        -141.613
2.376                  -13.06893       -143.7166
2.38                   -13.34951       -145.9196
2.384                  -13.63188       -148.2292
2.388                  -13.91508       -150.6524
2.392                  -14.19792       -153.1967
2.396                  -14.47897        -155.869
2.4                    -14.75657        -158.676
2.404                  -15.02877       -161.6234