! TOUCHSTONE file generated by CST MICROWAVE STUDIO
! Date and time: Fri May  6 09:22:49 2022
! Project name: ant1_ceramic_sweep_10porcent.cst
! Parameters = {e=0.035; h=1.6; i=0.88; l1=0.5; l2=17; ls=80; wl=1.7; ws=30}
! Header version: 2018
! Port assignment regex: !\s*Touchstone port\s*([0-9]+)\s*=\s*(CST MWS port|CST DS port)\s*([0-9]+|Zmin|Zmax)\s*\(\"(.*)\"\)(\s*mode\s*([0-9]+))?.*
! Touchstone port assignment:
! Touchstone port 1 = CST MWS port 1 ("")
# GHz S DB R 50
0                  -3.624043e-05              -0
0.004              -4.890661e-05     -0.06108499
0.008              -8.380137e-05      -0.1221626
0.012              -0.0001440387      -0.1832255
0.016              -0.0002275606      -0.2442663
0.02               -0.0003354203       -0.305278
0.024              -0.0004660873      -0.3662531
0.028              -0.0006190715      -0.4271847
0.032              -0.0007944052      -0.4880658
0.036               -0.000992643      -0.5488897
0.04                -0.001212273      -0.6096496
0.044               -0.001452822      -0.6703391
0.048               -0.001712788      -0.7309519
0.052               -0.001995329       -0.791482
0.056                -0.00229377      -0.8519233
0.06                -0.002612833      -0.9122705
0.064               -0.002947401       -0.972518
0.068               -0.003299094       -1.032661
0.072               -0.003667978       -1.092694
0.076               -0.004049463       -1.152614
0.08                -0.004445693       -1.212415
0.084                -0.00485622       -1.272095
0.088               -0.005275941       -1.331649
0.092               -0.005707519       -1.391075
0.096               -0.006148956       -1.450369
0.1                 -0.006598773        -1.50953
0.104               -0.007054973       -1.568555
0.108               -0.007517628       -1.627442
0.112               -0.007986293       -1.686191
0.116               -0.008457928       -1.744801
0.12                -0.008932086        -1.80327
0.124               -0.009407276         -1.8616
0.128               -0.009882529        -1.91979
0.132                -0.01035687       -1.977842
0.136                -0.01082931       -2.035756
0.14                 -0.01129733       -2.093534
0.144                -0.01176097       -2.151177
0.148                -0.01221819       -2.208689
0.152                -0.01266906       -2.266073
0.156                -0.01311049       -2.323331
0.16                 -0.01354303       -2.380467
0.164                -0.01396567       -2.437485
0.168                -0.01437533       -2.494388
0.172                -0.01477306       -2.551183
0.176                -0.01515731       -2.607875
0.18                 -0.01552603       -2.664468
0.184                -0.01587815       -2.720968
0.188                 -0.0162142       -2.777381
0.192                -0.01653365       -2.833714
0.196                -0.01683388       -2.889974
0.2                  -0.01711539       -2.946167
0.204                -0.01737607         -3.0023
0.208                -0.01761744       -3.058381
0.212                -0.01783633       -3.114419
0.216                -0.01803426       -3.170419
0.22                 -0.01820857       -3.226391
0.224                -0.01836128       -3.282343
0.228                -0.01849023       -3.338284
0.232                -0.01859588       -3.394221
0.236                 -0.0186771       -3.450164
0.24                 -0.01873431       -3.506122
0.244                -0.01876744       -3.562102
0.248                -0.01877585       -3.618115
0.252                -0.01876049       -3.674169
0.256                -0.01871968       -3.730272
0.26                 -0.01865591       -3.786435
0.264                -0.01856697       -3.842665
0.268                -0.01845481       -3.898973
0.272                -0.01831776       -3.955365
0.276                -0.01815828       -4.011852
0.28                 -0.01797518       -4.068441
0.284                 -0.0177699       -4.125141
0.288                -0.01754279       -4.181961
0.292                -0.01729372       -4.238909
0.296                -0.01702461       -4.295991
0.3                  -0.01673478       -4.353218
0.304                -0.01642514       -4.410594
0.308                -0.01609864       -4.468128
0.312                -0.01575304       -4.525827
0.316                -0.01539077       -4.583698
0.32                 -0.01501272       -4.641748
0.324                -0.01461977       -4.699981
0.328                -0.01421282       -4.758403
0.332                -0.01379273       -4.817021
0.336                -0.01336142       -4.875839
0.34                 -0.01291926       -4.934862
0.344                -0.01246766       -4.994094
0.348                -0.01200699        -5.05354
0.352                -0.01153917       -5.113202
0.356                -0.01106612       -5.173084
0.36                 -0.01058825       -5.233189
0.364                -0.01010747        -5.29352
0.368               -0.009623662       -5.354078
0.372               -0.009139821       -5.414863
0.376               -0.008655791        -5.47588
0.38                -0.008174597       -5.537126
0.384               -0.007695082       -5.598603
0.388               -0.007219727       -5.660311
0.392               -0.006749991       -5.722249
0.396                -0.00628682       -5.784415
0.4                 -0.005832214       -5.846809
0.404               -0.005387622        -5.90943
0.408               -0.004951967       -5.972274
0.412               -0.004528793       -6.035339
0.416               -0.004119093       -6.098622
0.42                -0.003720742        -6.16212
0.424                -0.00334095        -6.22583
0.428               -0.002974514       -6.289746
0.432               -0.002626602       -6.353865
0.436               -0.002295107       -6.418182
0.44                -0.001984195       -6.482691
0.444               -0.001693329       -6.547389
0.448               -0.001422023       -6.612267
0.452               -0.001172365       -6.677322
0.456              -0.0009454184       -6.742546
0.46               -0.0007422519       -6.807935
0.464              -0.0005608607        -6.87348
0.468              -0.0004044015       -6.939174
0.472              -0.0002729281       -7.005013
0.476              -0.0001675664       -7.070987
0.48                -8.68234e-05        -7.13709
0.484              -3.133045e-05       -7.203313
0.488              -3.771487e-06       -7.269649
0.492              -5.826214e-07       -7.336093
0.496              -2.503795e-05       -7.402633
0.5                -7.617734e-05       -7.469265
0.504              -0.0001536265       -7.535979
0.508              -0.0002574799       -7.602769
0.512              -0.0003879055       -7.669626
0.516              -0.0005439655       -7.736543
0.52               -0.0007273618       -7.803513
0.524               -0.000936707       -7.870528
0.528               -0.001170567        -7.93758
0.532                -0.00142861        -8.00466
0.536               -0.001710914       -8.071765
0.54                -0.002018679       -8.138888
0.544               -0.002348496       -8.206018
0.548               -0.002701463       -8.273153
0.552               -0.003076234       -8.340283
0.556               -0.003471372       -8.407405
0.56                -0.003887021       -8.474511
0.564               -0.004321219       -8.541597
0.568                -0.00477467       -8.608658
0.572               -0.005244851       -8.675689
0.576               -0.005731958       -8.742684
0.58                -0.006234461       -8.809642
0.584               -0.006749963       -8.876556
0.588               -0.007278532       -8.943424
0.592               -0.007819707       -9.010246
0.596               -0.008370528       -9.077014
0.6                 -0.008930515       -9.143728
0.604               -0.009498677       -9.210389
0.608                -0.01007355       -9.276992
0.612                -0.01065307       -9.343538
0.616                -0.01123728       -9.410028
0.62                 -0.01182462        -9.47646
0.624                -0.01241157       -9.542832
0.628                -0.01300054       -9.609153
0.632                -0.01358747       -9.675418
0.636                -0.01417126       -9.741629
0.64                 -0.01475137       -9.807791
0.644                -0.01532455       -9.873905
0.648                -0.01589286       -9.939976
0.652                -0.01645251       -10.00601
0.656                 -0.0170024         -10.072
0.66                 -0.01754286       -10.13797
0.664                -0.01807019       -10.20391
0.668                -0.01858472       -10.26982
0.672                -0.01908467       -10.33573
0.676                -0.01956931       -10.40163
0.68                 -0.02003801       -10.46752
0.684                -0.02048944       -10.53342
0.688                -0.02092026       -10.59934
0.692                 -0.0213328       -10.66528
0.696                -0.02172575       -10.73125
0.7                  -0.02209572       -10.79725
0.704                -0.02244604       -10.86331
0.708                -0.02277067       -10.92942
0.712                -0.02307392        -10.9956
0.716                -0.02335136       -11.06185
0.72                 -0.02360518       -11.12819
0.724                -0.02383297       -11.19463
0.728                -0.02403536       -11.26118
0.732                -0.02421247       -11.32784
0.736                -0.02436338       -11.39463
0.74                 -0.02448668       -11.46156
0.744                -0.02458298       -11.52864
0.748                -0.02465332       -11.59588
0.752                -0.02469785        -11.6633
0.756                -0.02471511       -11.73089
0.76                 -0.02470561       -11.79868
0.764                -0.02467103       -11.86668
0.768                -0.02460934       -11.93489
0.772                -0.02452212       -12.00333
0.776                  -0.024411       -12.07201
0.78                 -0.02427446       -12.14094
0.784                -0.02411413       -12.21012
0.788                -0.02393051       -12.27958
0.792                -0.02372425       -12.34932
0.796                -0.02349738       -12.41935
0.8                   -0.0232495       -12.48967
0.804                -0.02298065       -12.56031
0.808                -0.02269397       -12.63127
0.812                -0.02238901       -12.70255
0.816                -0.02206691       -12.77417
0.82                 -0.02172977       -12.84613
0.824                -0.02137877       -12.91845
0.828                -0.02101441       -12.99112
0.832                -0.02063792       -13.06416
0.836                -0.02025151       -13.13758
0.84                 -0.01985674       -13.21138
0.844                -0.01945384       -13.28556
0.848                -0.01904601       -13.36013
0.852                -0.01863187        -13.4351
0.856                -0.01821575       -13.51047
0.86                 -0.01779829       -13.58625
0.864                -0.01738187       -13.66243
0.868                 -0.0169661       -13.73903
0.872                -0.01655389       -13.81603
0.876                -0.01614591       -13.89346
0.88                 -0.01574561        -13.9713
0.884                -0.01535267       -14.04956
0.888                -0.01496957       -14.12824
0.892                -0.01459913       -14.20734
0.896                -0.01424077       -14.28686
0.9                   -0.0138968        -14.3668
0.904                -0.01356925       -14.44715
0.908                -0.01325948       -14.52792
0.912                -0.01296846        -14.6091
0.916                -0.01269865       -14.69069
0.92                 -0.01245018       -14.77268
0.924                 -0.0122253       -14.85508
0.928                -0.01202583       -14.93787
0.932                -0.01185179       -15.02106
0.936                -0.01170491       -15.10464
0.94                 -0.01158654        -15.1886
0.944                -0.01149833       -15.27294
0.948                -0.01144124       -15.35766
0.952                -0.01141549       -15.44273
0.956                -0.01142269       -15.52817
0.96                 -0.01146394       -15.61396
0.964                -0.01154005       -15.70009
0.968                -0.01165116       -15.78656
0.972                -0.01179787       -15.87336
0.976                -0.01198154       -15.96047
0.98                 -0.01220316       -16.04791
0.984                -0.01246166       -16.13565
0.988                -0.01275919       -16.22369
0.992                -0.01309457       -16.31201
0.996                -0.01346839       -16.40061
1                    -0.01388154       -16.48949
1.004                -0.01433365       -16.57863
1.008                -0.01482406       -16.66802
1.012                -0.01535405       -16.75767
1.016                -0.01592183       -16.84754
1.02                 -0.01652812       -16.93765
1.024                -0.01717309       -17.02798
1.028                -0.01785569       -17.11852
1.032                -0.01857466       -17.20925
1.036                -0.01933069        -17.3002
1.04                 -0.02012267       -17.39132
1.044                -0.02094921       -17.48268
1.048                -0.02180976       -17.57415
1.052                -0.02270516       -17.66581
1.056                -0.02363195       -17.75763
1.06                 -0.02459109       -17.84962
1.064                -0.02558035       -17.94178
1.068                -0.02659836       -18.03407
1.072                -0.02764476       -18.12646
1.076                -0.02871847       -18.21903
1.08                 -0.02981747       -18.31173
1.084                -0.03093971       -18.40456
1.088                -0.03208511       -18.49754
1.092                -0.03325114       -18.59062
1.096                -0.03443765       -18.68381
1.1                  -0.03564156       -18.77716
1.104                -0.03686197        -18.8706
1.108                -0.03809781        -18.9642
1.112                 -0.0393473       -19.05788
1.116                -0.04060679       -19.15173
1.12                 -0.04187736       -19.24569
1.124                 -0.0431561       -19.33981
1.128                -0.04444165       -19.43403
1.132                -0.04573196        -19.5284
1.136                -0.04702462       -19.62291
1.14                 -0.04831944       -19.71757
1.144                -0.04961375       -19.81238
1.148                -0.05090632       -19.90735
1.152                -0.05219639        -20.0025
1.156                -0.05347951       -20.09781
1.16                 -0.05475657       -20.19332
1.164                -0.05602593       -20.28902
1.168                -0.05728515       -20.38492
1.172                -0.05853316       -20.48103
1.176                -0.05976877       -20.57738
1.18                 -0.06099058       -20.67395
1.184                -0.06219671       -20.77078
1.188                -0.06338633       -20.86787
1.192                -0.06455792       -20.96523
1.196                -0.06571245       -21.06289
1.2                  -0.06684613       -21.16085
1.204                -0.06795887       -21.25912
1.208                -0.06905032       -21.35773
1.212                -0.07011977       -21.45669
1.216                -0.07116636       -21.55602
1.22                 -0.07218876       -21.65573
1.224                -0.07318723       -21.75584
1.228                -0.07416147       -21.85636
1.232                -0.07511035       -21.95732
1.236                -0.07603489       -22.05873
1.24                 -0.07693362       -22.16061
1.244                -0.07780712       -22.26298
1.248                -0.07865632       -22.36585
1.252                -0.07948165       -22.46925
1.256                 -0.0802808       -22.57319
1.26                 -0.08105667        -22.6777
1.264                -0.08180933       -22.78278
1.268                -0.08253853       -22.88847
1.272                -0.08324672       -22.99478
1.276                 -0.0839338       -23.10172
1.28                 -0.08460044       -23.20932
1.284                 -0.0852486       -23.31759
1.288                -0.08587784       -23.42655
1.292                -0.08649173       -23.53623
1.296                -0.08709019       -23.64663
1.3                  -0.08767526       -23.75778
1.304                -0.08824847        -23.8697
1.308                -0.08881157       -23.98239
1.312                 -0.0893651       -24.09588
1.316                -0.08991353       -24.21019
1.32                 -0.09045767       -24.32532
1.324                -0.09099954        -24.4413
1.328                 -0.0915397       -24.55813
1.332                -0.09208332       -24.67584
1.336                -0.09263115       -24.79444
1.34                 -0.09318512       -24.91393
1.344                -0.09374922       -25.03434
1.348                -0.09432335       -25.15568
1.352                 -0.0949125       -25.27795
1.356                -0.09551919       -25.40117
1.36                 -0.09614536       -25.52535
1.364                -0.09679254        -25.6505
1.368                -0.09746577       -25.77662
1.372                -0.09816656       -25.90373
1.376                 -0.0988978       -26.03184
1.38                 -0.09966178       -26.16094
1.384                 -0.1004629       -26.29106
1.388                 -0.1013027       -26.42218
1.392                 -0.1021843       -26.55433
1.396                 -0.1031104       -26.68749
1.4                   -0.1040843       -26.82169
1.404                 -0.1051072       -26.95691
1.408                 -0.1061855       -27.09317
1.412                 -0.1073187       -27.23046
1.416                 -0.1085101       -27.36878
1.42                   -0.109764       -27.50814
1.424                 -0.1110812       -27.64854
1.428                 -0.1124647       -27.78997
1.432                 -0.1139179       -27.93243
1.436                 -0.1154432       -28.07593
1.44                  -0.1170425       -28.22046
1.444                 -0.1187182       -28.36602
1.448                 -0.1204738        -28.5126
1.452                 -0.1223089        -28.6602
1.456                 -0.1242291       -28.80882
1.46                  -0.1262337       -28.95844
1.464                 -0.1283268       -29.10908
1.468                 -0.1305092       -29.26072
1.472                 -0.1327827       -29.41335
1.476                  -0.135149       -29.56698
1.48                  -0.1376109       -29.72159
1.484                 -0.1401682       -29.87717
1.488                 -0.1428242       -30.03374
1.492                 -0.1455787       -30.19126
1.496                 -0.1484327       -30.34975
1.5                   -0.1513897       -30.50919
1.504                 -0.1544484       -30.66958
1.508                 -0.1576109       -30.83091
1.512                 -0.1608766       -30.99317
1.516                 -0.1642478       -31.15636
1.52                  -0.1677245       -31.32047
1.524                 -0.1713072        -31.4855
1.528                 -0.1749961       -31.65144
1.532                 -0.1787921       -31.81829
1.536                 -0.1826946       -31.98603
1.54                  -0.1867031       -32.15467
1.544                 -0.1908189       -32.32421
1.548                 -0.1950417       -32.49463
1.552                 -0.1993692       -32.66594
1.556                 -0.2038035       -32.83814
1.56                  -0.2083436       -33.01121
1.564                 -0.2129879       -33.18517
1.568                 -0.2177366       -33.36001
1.572                 -0.2225886       -33.53574
1.576                 -0.2275444       -33.71234
1.58                  -0.2326007       -33.88983
1.584                 -0.2377585       -34.06821
1.588                 -0.2430161       -34.24748
1.592                 -0.2483739       -34.42765
1.596                  -0.253828       -34.60873
1.6                   -0.2593784       -34.79071
1.604                 -0.2650242       -34.97361
1.608                 -0.2707663       -35.15745
1.612                 -0.2765991       -35.34221
1.616                 -0.2825239       -35.52794
1.62                  -0.2885391       -35.71462
1.624                 -0.2946434       -35.90227
1.628                  -0.300836       -36.09092
1.632                 -0.3071156       -36.28058
1.636                  -0.313479       -36.47126
1.64                  -0.3199283       -36.66299
1.644                 -0.3264596       -36.85578
1.648                 -0.3330728       -37.04965
1.652                  -0.339766       -37.24464
1.656                 -0.3465407       -37.44076
1.66                  -0.3533925       -37.63803
1.664                 -0.3603233       -37.83648
1.668                 -0.3673318       -38.03616
1.672                 -0.3744169       -38.23707
1.676                 -0.3815762       -38.43925
1.68                  -0.3888136       -38.64274
1.684                 -0.3961258       -38.84757
1.688                 -0.4035134       -39.05377
1.692                 -0.4109765       -39.26138
1.696                 -0.4185143       -39.47043
1.7                   -0.4261286       -39.68096
1.704                 -0.4338187       -39.89302
1.708                 -0.4415873       -40.10663
1.712                 -0.4494335       -40.32187
1.716                 -0.4573583       -40.53874
1.72                  -0.4653649        -40.7573
1.724                  -0.473452        -40.9776
1.728                 -0.4816245       -41.19968
1.732                 -0.4898828       -41.42359
1.736                  -0.498228       -41.64937
1.74                  -0.5066647       -41.87707
1.744                 -0.5151943       -42.10676
1.748                 -0.5238213       -42.33847
1.752                 -0.5325476       -42.57225
1.756                 -0.5413786       -42.80816
1.76                  -0.5503137       -43.04624
1.764                 -0.5593632       -43.28655
1.768                 -0.5685276       -43.52915
1.772                 -0.5778124       -43.77409
1.776                 -0.5872223       -44.02141
1.78                  -0.5967625       -44.27118
1.784                 -0.6064405       -44.52345
1.788                 -0.6162603       -44.77826
1.792                 -0.6262299       -45.03569
1.796                 -0.6363531       -45.29578
1.8                   -0.6466395        -45.5586
1.804                 -0.6570936       -45.82417
1.808                 -0.6677245       -46.09257
1.812                 -0.6785405       -46.36386
1.816                 -0.6895497       -46.63807
1.82                  -0.7007589       -46.91528
1.824                 -0.7121789       -47.19554
1.828                  -0.723816       -47.47888
1.832                 -0.7356826       -47.76537
1.836                 -0.7477862       -48.05506
1.84                  -0.7601374       -48.34801
1.844                 -0.7727459       -48.64425
1.848                 -0.7856231       -48.94385
1.852                 -0.7987801       -49.24685
1.856                 -0.8122271       -49.55331
1.86                  -0.8259771       -49.86327
1.864                 -0.8400389       -50.17677
1.868                 -0.8544269       -50.49387
1.872                 -0.8691536       -50.81462
1.876                 -0.8842296       -51.13905
1.88                  -0.8996683       -51.46721
1.884                 -0.9154837       -51.79914
1.888                 -0.9316892        -52.1349
1.892                 -0.9482968       -52.47451
1.896                 -0.9653223       -52.81802
1.9                   -0.9827771       -53.16546
1.904                  -1.000678       -53.51689
1.908                  -1.019039       -53.87233
1.912                  -1.037875       -54.23183
1.916                  -1.057199       -54.59542
1.92                    -1.07703       -54.96312
1.924                   -1.09738       -55.33499
1.928                  -1.118267       -55.71104
1.932                  -1.139705       -56.09131
1.936                  -1.161711       -56.47584
1.94                   -1.184302       -56.86465
1.944                  -1.207493       -57.25777
1.948                  -1.231301       -57.65522
1.952                  -1.255745       -58.05705
1.956                  -1.280841       -58.46328
1.96                   -1.306604       -58.87392
1.964                  -1.333056       -59.28901
1.968                  -1.360209       -59.70857
1.972                  -1.388087       -60.13263
1.976                  -1.416704       -60.56119
1.98                   -1.446079       -60.99431
1.984                  -1.476232       -61.43199
1.988                  -1.507179       -61.87423
1.992                  -1.538942       -62.32109
1.996                  -1.571539       -62.77259
2                      -1.604987       -63.22871
2.004                  -1.639308       -63.68952
2.008                  -1.674522       -64.15499
2.012                  -1.710648       -64.62521
2.016                  -1.747705       -65.10012
2.02                   -1.785715        -65.5798
2.024                  -1.824699       -66.06424
2.028                  -1.864675       -66.55346
2.032                  -1.905668        -67.0475
2.036                  -1.947697       -67.54637
2.04                   -1.990783        -68.0501
2.044                  -2.034948       -68.55869
2.048                  -2.080216       -69.07218
2.052                  -2.126608       -69.59059
2.056                  -2.174147       -70.11397
2.06                   -2.222855        -70.6423
2.064                  -2.272756       -71.17564
2.068                  -2.323875         -71.714
2.072                  -2.376235       -72.25742
2.076                  -2.429858       -72.80593
2.08                   -2.484772       -73.35957
2.084                  -2.541001       -73.91835
2.088                   -2.59857       -74.48232
2.092                  -2.657506       -75.05155
2.096                  -2.717836       -75.62602
2.1                    -2.779584       -76.20581
2.104                   -2.84278       -76.79098
2.108                  -2.907449       -77.38154
2.112                  -2.973623       -77.97757
2.116                   -3.04133       -78.57912
2.12                   -3.110597       -79.18624
2.124                  -3.181457       -79.79902
2.128                   -3.25394        -80.4175
2.132                  -3.328077       -81.04176
2.136                    -3.4039       -81.67189
2.14                   -3.481442       -82.30794
2.144                  -3.560737       -82.95001
2.148                  -3.641819       -83.59822
2.152                  -3.724724       -84.25263
2.156                  -3.809488       -84.91337
2.16                   -3.896148       -85.58054
2.164                   -3.98474       -86.25427
2.168                  -4.075305       -86.93468
2.172                  -4.167885       -87.62191
2.176                  -4.262517       -88.31612
2.18                   -4.359246       -89.01744
2.184                  -4.458115       -89.72605
2.188                  -4.559167       -90.44212
2.192                   -4.66245       -91.16586
2.196                   -4.76801       -91.89745
2.2                    -4.875896       -92.63713
2.204                  -4.986159        -93.3851
2.208                  -5.098852       -94.14163
2.212                  -5.214022       -94.90699
2.216                  -5.331732       -95.68145
2.22                   -5.452034       -96.46531
2.224                  -5.574988        -97.2589
2.228                  -5.700654       -98.06257
2.232                  -5.829093        -98.8767
2.236                   -5.96037       -99.70168
2.24                    -6.09455       -100.5379
2.244                  -6.231703       -101.3859
2.248                    -6.3719       -102.2462
2.252                  -6.515211       -103.1192
2.256                  -6.661711       -104.0055
2.26                   -6.811478       -104.9058
2.264                  -6.964591       -105.8207
2.268                  -7.121129        -106.751
2.272                  -7.281177       -107.6973
2.276                  -7.444823       -108.6605
2.28                   -7.612152       -109.6416
2.284                  -7.783254       -110.6415
2.288                  -7.958221       -111.6611
2.292                  -8.137144       -112.7017
2.296                  -8.320119       -113.7645
2.3                    -8.507238       -114.8507
2.304                  -8.698599       -115.9619
2.308                  -8.894293       -117.0996
2.312                  -9.094417       -118.2654
2.316                  -9.299059       -119.4612
2.32                   -9.508307        -120.689
2.324                  -9.722245       -121.9509
2.328                  -9.940948       -123.2493
2.332                  -10.16448       -124.5868
2.336                   -10.3929       -125.9661
2.34                   -10.62625       -127.3903
2.344                  -10.86454       -128.8626
2.348                  -11.10777       -130.3867
2.352                  -11.35591       -131.9664
2.356                   -11.6089       -133.6059
2.36                   -11.86661       -135.3098
2.364                  -12.12887        -137.083
2.368                  -12.39546       -138.9308
2.372                  -12.66605       -140.8589
2.376                  -12.94023       -142.8733
2.38                   -13.21749       -144.9804
2.384                  -13.49715        -147.187
2.388                  -13.77842       -149.4999
2.392                  -14.06029       -151.9263
2.396                  -14.34157       -154.4732
2.4                    -14.62082       -157.1475
2.404                  -14.89635       -159.9556