! TOUCHSTONE file generated by CST MICROWAVE STUDIO
! Date and time: Fri May  6 09:22:52 2022
! Project name: ant1_ceramic_sweep_10porcent.cst
! Parameters = {e=0.035; h=1.6; i=0.8; l1=0.5; l2=17.17; ls=80; wl=1.7; ws=30}
! Header version: 2018
! Port assignment regex: !\s*Touchstone port\s*([0-9]+)\s*=\s*(CST MWS port|CST DS port)\s*([0-9]+|Zmin|Zmax)\s*\(\"(.*)\"\)(\s*mode\s*([0-9]+))?.*
! Touchstone port assignment:
! Touchstone port 1 = CST MWS port 1 ("")
# GHz S DB R 50
0                  -0.0001263244              -0
0.004               -0.000140124      -0.0604775
0.008              -0.0001789367      -0.1209468
0.012              -0.0002453598      -0.1813996
0.016              -0.0003368189      -0.2418278
0.02               -0.0004538512      -0.3022234
0.024              -0.0005985532      -0.3625784
0.028              -0.0007668132      -0.4228847
0.032              -0.0009602205      -0.4831347
0.036               -0.001177262      -0.5433208
0.04                 -0.00141902      -0.6034356
0.044               -0.001683473      -0.6634716
0.048               -0.001970157      -0.7234223
0.052               -0.002278097      -0.7832805
0.056               -0.002606836      -0.8430397
0.06                -0.002955405      -0.9026939
0.064               -0.003324391      -0.9622369
0.068               -0.003711278       -1.021663
0.072               -0.004114585       -1.080968
0.076               -0.004533355       -1.140145
0.08                -0.004968701       -1.199191
0.084               -0.005417079         -1.2581
0.088               -0.005879087        -1.31687
0.092               -0.006350662       -1.375497
0.096               -0.006834996       -1.433977
0.1                 -0.007326472       -1.492309
0.104               -0.007826206       -1.550489
0.108               -0.008333243       -1.608516
0.112               -0.008844553       -1.666389
0.116               -0.009360732       -1.724106
0.12                -0.009878227       -1.781668
0.124                -0.01039711       -1.839074
0.128                -0.01091486       -1.896325
0.132                -0.01143206       -1.953421
0.136                -0.01194723       -2.010364
0.14                 -0.01245626       -2.067156
0.144                -0.01296129       -2.123799
0.148                -0.01345772       -2.180295
0.152                -0.01394764       -2.236648
0.156                -0.01442696       -2.292862
0.16                 -0.01489571        -2.34894
0.164                -0.01535236       -2.404888
0.168                -0.01579538       -2.460709
0.172                 -0.0162248       -2.516409
0.176                -0.01663854       -2.571994
0.18                 -0.01703557        -2.62747
0.184                -0.01741434       -2.682842
0.188                -0.01777535        -2.73812
0.192                -0.01811548       -2.793307
0.196                -0.01843625       -2.848415
0.2                  -0.01873558       -2.903447
0.204                -0.01901135       -2.958414
0.208                -0.01926558       -3.013324
0.212                -0.01949512       -3.068185
0.216                -0.01970146       -3.123006
0.22                 -0.01988195       -3.177795
0.224                -0.02003756       -3.232563
0.228                -0.02016717       -3.287318
0.232                -0.02027018        -3.34207
0.236                -0.02034805       -3.396828
0.24                 -0.02039913       -3.451603
0.244                -0.02042177       -3.506402
0.248                -0.02041949       -3.561239
0.252                 -0.0203901        -3.61612
0.256                -0.02033244       -3.671056
0.26                 -0.02024793       -3.726059
0.264                -0.02013906       -3.781136
0.268                -0.02000257       -3.836297
0.272                -0.01983988       -3.891553
0.276                -0.01965189       -3.946912
0.28                 -0.01943895       -4.002384
0.284                -0.01920146       -4.057979
0.288                -0.01894028       -4.113705
0.292                -0.01865578       -4.169572
0.296                -0.01834885       -4.225586
0.3                  -0.01802034       -4.281758
0.304                -0.01767011       -4.338095
0.308                 -0.0173011       -4.394605
0.312                -0.01691315       -4.451296
0.316                 -0.0165061       -4.508173
0.32                 -0.01608391       -4.565246
0.324                -0.01564385       -4.622518
0.328                -0.01518989       -4.679997
0.332                 -0.0147229       -4.737689
0.336                -0.01424376       -4.795599
0.34                 -0.01375282       -4.853732
0.344                -0.01325254       -4.912091
0.348                -0.01274481       -4.970682
0.352                -0.01222845       -5.029508
0.356                -0.01170799       -5.088572
0.36                 -0.01118275       -5.147876
0.364                -0.01065416       -5.207423
0.368                -0.01012518       -5.267215
0.372               -0.009595176       -5.327253
0.376               -0.009067649       -5.387538
0.38                -0.008541436        -5.44807
0.384               -0.008020076       -5.508848
0.388               -0.007504984       -5.569874
0.392               -0.006995571       -5.631145
0.396               -0.006495885        -5.69266
0.4                 -0.006004805       -5.754416
0.404               -0.005525895       -5.816412
0.408               -0.005059589       -5.878646
0.412               -0.004605846       -5.941112
0.416               -0.004167706       -6.003808
0.42                -0.003745682        -6.06673
0.424               -0.003340213       -6.129873
0.428               -0.002953906       -6.193233
0.432               -0.002588298       -6.256803
0.436               -0.002242855        -6.32058
0.44                -0.001918109       -6.384556
0.444               -0.001615627       -6.448725
0.448                -0.00133857        -6.51308
0.452               -0.001083844       -6.577614
0.456               -0.000855616       -6.642323
0.46               -0.0006534617       -6.707197
0.464              -0.0004758805       -6.772227
0.468              -0.0003260506       -6.837408
0.472              -0.0002051068        -6.90273
0.476              -0.0001105222       -6.968186
0.48               -4.497714e-05       -7.033769
0.484              -8.628489e-06       -7.099467
0.488              -5.089212e-07       -7.165275
0.492              -2.232996e-05       -7.231182
0.496                 -7.162e-05        -7.29718
0.5                -0.0001516203       -7.363261
0.504              -0.0002603852       -7.429416
0.508              -0.0003986098       -7.495636
0.512              -0.0005653715       -7.561914
0.516              -0.0007592915        -7.62824
0.52               -0.0009831552       -7.694604
0.524               -0.001233972       -7.761001
0.528               -0.001512947       -7.827422
0.532               -0.001817685       -7.893858
0.536               -0.002148821       -7.960303
0.54                -0.002506058       -8.026747
0.544               -0.002886451       -8.093183
0.548               -0.003293233       -8.159608
0.552               -0.003721418        -8.22601
0.556               -0.004172161       -8.292387
0.56                -0.004642554       -8.358729
0.564               -0.005132774       -8.425031
0.568                -0.00564391       -8.491292
0.572               -0.006171513       -8.557501
0.576               -0.006715731       -8.623656
0.58                -0.007275593       -8.689753
0.584               -0.007848122       -8.755789
0.588               -0.008435048       -8.821757
0.592               -0.009033262        -8.88766
0.596               -0.009639237       -8.953491
0.6                   -0.0102552       -9.019249
0.604                -0.01087904       -9.084936
0.608                -0.01150681       -9.150542
0.612                -0.01213995       -9.216077
0.616                -0.01277387       -9.281535
0.62                 -0.01341067       -9.346919
0.624                -0.01404621       -9.412229
0.628                -0.01467993       -9.477466
0.632                -0.01531074       -9.542634
0.636                -0.01593602       -9.607735
0.64                 -0.01655467       -9.672771
0.644                -0.01716556       -9.737747
0.648                -0.01776805       -9.802667
0.652                -0.01835895       -9.867535
0.656                -0.01893704       -9.932357
0.66                 -0.01950325       -9.997139
0.664                -0.02005378       -10.06188
0.668                -0.02058788        -10.1266
0.672                -0.02110483        -10.1913
0.676                -0.02160289       -10.25599
0.68                 -0.02208127       -10.32067
0.684                -0.02253865       -10.38535
0.688                -0.02297377       -10.45005
0.692                -0.02338582       -10.51476
0.696                -0.02377449       -10.57951
0.7                  -0.02413893        -10.6443
0.704                -0.02447665       -10.70914
0.708                -0.02478793       -10.77404
0.712                -0.02507289       -10.83901
0.716                -0.02532958       -10.90407
0.72                 -0.02555811       -10.96922
0.724                -0.02575861       -11.03448
0.728                -0.02593014       -11.09986
0.732                -0.02607124       -11.16536
0.736                -0.02618409       -11.23101
0.74                 -0.02626713       -11.29681
0.744                -0.02632049       -11.36277
0.748                -0.02634418       -11.42892
0.752                -0.02633828       -11.49525
0.756                -0.02630329       -11.56179
0.76                 -0.02623932       -11.62854
0.764                -0.02614634       -11.69551
0.768                 -0.0260249       -11.76273
0.772                -0.02587763       -11.83019
0.776                -0.02570144       -11.89792
0.78                 -0.02550001       -11.96592
0.784                -0.02527226        -12.0342
0.788                -0.02502032       -12.10278
0.792                 -0.0247447       -12.17167
0.796                -0.02444653       -12.24087
0.8                  -0.02412679        -12.3104
0.804                 -0.0237856       -12.38027
0.808                -0.02342553       -12.45049
0.812                -0.02304869       -12.52106
0.816                -0.02265416         -12.592
0.82                 -0.02224355        -12.6633
0.824                -0.02181946       -12.73499
0.828                -0.02138362       -12.80707
0.832                -0.02093608       -12.87955
0.836                   -0.02048       -12.95242
0.84                 -0.02001515       -13.02571
0.844                 -0.0195456       -13.09941
0.848                -0.01907059       -13.17353
0.852                -0.01859294       -13.24806
0.856                 -0.0181157       -13.32304
0.86                 -0.01763879       -13.39843
0.864                -0.01716288       -13.47427
0.868                -0.01669283       -13.55054
0.872                -0.01622894       -13.62724
0.876                -0.01577242       -13.70439
0.88                 -0.01532577       -13.78197
0.884                -0.01489027          -13.86
0.888                -0.01446931       -13.93847
0.892                -0.01406283       -14.01737
0.896                -0.01367223       -14.09671
0.9                  -0.01330046       -14.17648
0.904                -0.01294896       -14.25669
0.908                -0.01261973       -14.33732
0.912                -0.01231225       -14.41838
0.916                -0.01203118       -14.49986
0.92                 -0.01177535       -14.58176
0.924                -0.01154786       -14.66407
0.928                -0.01134904       -14.74678
0.932                -0.01118168        -14.8299
0.936                -0.01104663       -14.91341
0.94                 -0.01094338        -14.9973
0.944                -0.01087501       -15.08158
0.948                -0.01084202       -15.16622
0.952                 -0.0108458       -15.25123
0.956                 -0.0108865        -15.3366
0.96                 -0.01096422        -15.4223
0.964                -0.01108278       -15.50835
0.968                -0.01124066       -15.59473
0.972                -0.01143798       -15.68143
0.976                -0.01167658       -15.76844
0.98                 -0.01195668       -15.85576
0.984                -0.01227816       -15.94336
0.988                -0.01264215       -16.03125
0.992                -0.01304856       -16.11942
0.996                -0.01349628       -16.20784
1                    -0.01398636       -16.29652
1.004                -0.01451829       -16.38544
1.008                -0.01509177       -16.47459
1.012                -0.01570768       -16.56397
1.016                -0.01636459       -16.65357
1.02                  -0.0170631       -16.74337
1.024                -0.01780005       -16.83337
1.028                -0.01857783       -16.92356
1.032                -0.01939363       -17.01391
1.036                -0.02024837       -17.10448
1.04                 -0.02113973       -17.19515
1.044                -0.02206756       -17.28602
1.048                -0.02303061       -17.37703
1.052                -0.02402732       -17.46817
1.056                -0.02505694       -17.55945
1.06                 -0.02611722       -17.65089
1.064                 -0.0272081       -17.74242
1.068                -0.02832713       -17.83408
1.072                -0.02947397       -17.92585
1.076                -0.03064632       -18.01773
1.08                 -0.03184234       -18.10974
1.084                -0.03306207       -18.20182
1.088                -0.03430043       -18.29405
1.092                -0.03555902       -18.38631
1.096                -0.03683381       -18.47874
1.1                  -0.03812527       -18.57127
1.104                -0.03942919       -18.66386
1.108                -0.04074484       -18.75656
1.112                -0.04207043       -18.84937
1.116                  -0.043404       -18.94229
1.12                 -0.04474281       -19.03534
1.124                -0.04608686       -19.12848
1.128                -0.04743246       -19.22176
1.132                -0.04877972       -19.31516
1.136                  -0.050124       -19.40869
1.14                 -0.05146488       -19.50236
1.144                -0.05280018       -19.59617
1.148                 -0.0541281       -19.69014
1.152                -0.05544819       -19.78427
1.156                 -0.0567574       -19.87859
1.16                 -0.05805409       -19.97308
1.164                -0.05933731       -20.06777
1.168                -0.06060475       -20.16267
1.172                -0.06185503       -20.25779
1.176                 -0.0630869       -20.35315
1.18                 -0.06429808       -20.44876
1.184                -0.06548952       -20.54463
1.188                -0.06665804       -20.64077
1.192                -0.06780262       -20.73721
1.196                -0.06892329       -20.83397
1.2                  -0.07001719       -20.93104
1.204                -0.07108569       -21.02847
1.208                -0.07212709       -21.12625
1.212                -0.07314104       -21.22442
1.216                 -0.0741257       -21.32298
1.22                 -0.07508129       -21.42196
1.224                -0.07600855       -21.52137
1.228                -0.07690521       -21.62124
1.232                -0.07777362        -21.7216
1.236                -0.07861174       -21.82243
1.24                 -0.07942075       -21.92379
1.244                -0.08020058       -22.02569
1.248                -0.08095167       -22.12814
1.252                 -0.0816749       -22.23116
1.256                -0.08237063       -22.33479
1.26                 -0.08303825       -22.43903
1.264                -0.08368013        -22.5439
1.268                  -0.084298       -22.64944
1.272                -0.08489127       -22.75565
1.276                -0.08546214       -22.86256
1.28                 -0.08601169       -22.97019
1.284                -0.08654081       -23.07855
1.288                -0.08705237       -23.18767
1.292                -0.08754712       -23.29756
1.296                -0.08802702       -23.40825
1.3                  -0.08849372       -23.51975
1.304                -0.08894972       -23.63208
1.308                -0.08939722       -23.74526
1.312                -0.08983875        -23.8593
1.316                -0.09027571       -23.97422
1.32                  -0.0907107       -24.09003
1.324                -0.09114618       -24.20676
1.328                -0.09158545       -24.32441
1.332                -0.09203034         -24.443
1.336                -0.09248378       -24.56255
1.34                 -0.09294888       -24.68305
1.344                -0.09342748       -24.80454
1.348                -0.09392397       -24.92701
1.352                -0.09443977       -25.05049
1.356                -0.09497921       -25.17497
1.36                 -0.09554439       -25.30047
1.364                -0.09613803         -25.427
1.368                -0.09676455       -25.55456
1.372                -0.09742514       -25.68316
1.376                -0.09812555       -25.81281
1.38                 -0.09886638       -25.94351
1.384                -0.09965111       -26.07527
1.388                 -0.1004855        -26.2081
1.392                  -0.101369       -26.34198
1.396                 -0.1023069       -26.47693
1.4                   -0.1033003       -26.61295
1.404                 -0.1043537       -26.75004
1.408                 -0.1054708        -26.8882
1.412                 -0.1066535       -27.02743
1.416                 -0.1079045       -27.16772
1.42                   -0.109227       -27.30909
1.424                 -0.1106227       -27.45151
1.428                 -0.1120961       -27.59499
1.432                 -0.1136487       -27.73954
1.436                 -0.1152834       -27.88513
1.44                  -0.1170025       -28.03177
1.444                 -0.1188077       -28.17946
1.448                 -0.1207036       -28.32819
1.452                 -0.1226889       -28.47794
1.456                 -0.1247697       -28.62872
1.46                  -0.1269445       -28.78052
1.464                  -0.129217       -28.93332
1.468                 -0.1315879       -29.08714
1.472                 -0.1340607       -29.24194
1.476                 -0.1366354       -29.39774
1.48                  -0.1393134       -29.55452
1.484                 -0.1420968       -29.71226
1.488                  -0.144986       -29.87097
1.492                  -0.147984       -30.03064
1.496                 -0.1510897       -30.19126
1.5                   -0.1543032       -30.35281
1.504                 -0.1576277        -30.5153
1.508                 -0.1610615       -30.67871
1.512                 -0.1646081       -30.84304
1.516                 -0.1682642       -31.00828
1.52                  -0.1720323       -31.17441
1.524                 -0.1759115       -31.34145
1.528                 -0.1799021       -31.50937
1.532                  -0.184003       -31.67819
1.536                 -0.1882162       -31.84788
1.54                  -0.1925389       -32.01845
1.544                 -0.1969722       -32.18988
1.548                 -0.2015142       -32.36219
1.552                 -0.2061656       -32.53537
1.556                 -0.2109236        -32.7094
1.56                   -0.215789       -32.88431
1.564                 -0.2207607       -33.06008
1.568                  -0.225837       -33.23672
1.572                 -0.2310171       -33.41422
1.576                 -0.2362988       -33.59259
1.58                  -0.2416804       -33.77184
1.584                 -0.2471636       -33.95197
1.588                 -0.2527435       -34.13298
1.592                 -0.2584205       -34.31489
1.596                 -0.2641924       -34.49771
1.6                   -0.2700577       -34.68144
1.604                 -0.2760153       -34.86609
1.608                 -0.2820626       -35.05168
1.612                 -0.2881997       -35.23822
1.616                 -0.2944234       -35.42574
1.62                  -0.3007316       -35.61423
1.624                 -0.3071242       -35.80372
1.628                 -0.3135992       -35.99424
1.632                 -0.3201553        -36.1858
1.636                 -0.3267895       -36.37842
1.64                  -0.3335026       -36.57213
1.644                 -0.3402921       -36.76696
1.648                 -0.3471576       -36.96293
1.652                 -0.3540956       -37.16007
1.656                 -0.3611089       -37.35841
1.66                   -0.368193       -37.55797
1.664                 -0.3753479       -37.75881
1.668                 -0.3825744       -37.96094
1.672                 -0.3898698        -38.1644
1.676                 -0.3972355       -38.36922
1.68                  -0.4046708       -38.57547
1.684                 -0.4121763       -38.78315
1.688                 -0.4197492       -38.99233
1.692                 -0.4273939       -39.20305
1.696                 -0.4351081       -39.41533
1.7                   -0.4428917       -39.62923
1.704                 -0.4507503       -39.84481
1.708                 -0.4586803        -40.0621
1.712                 -0.4666851       -40.28115
1.716                 -0.4747672       -40.50201
1.72                  -0.4829262       -40.72474
1.724                 -0.4911673       -40.94938
1.728                 -0.4994911       -41.17599
1.732                 -0.5078988       -41.40461
1.736                 -0.5163961       -41.63532
1.74                  -0.5249872       -41.86815
1.744                  -0.533674       -42.10317
1.748                 -0.5424586       -42.34043
1.752                 -0.5513493       -42.57999
1.756                 -0.5603476       -42.82191
1.76                    -0.56946       -43.06624
1.764                 -0.5786923       -43.31305
1.768                 -0.5880483       -43.56238
1.772                 -0.5975336        -43.8143
1.776                 -0.6071577       -44.06888
1.78                  -0.6169242       -44.32616
1.784                 -0.6268408       -44.58621
1.788                 -0.6369142       -44.84908
1.792                 -0.6471536       -45.11484
1.796                 -0.6575662       -45.38355
1.8                   -0.6681597       -45.65526
1.804                  -0.678943       -45.93003
1.808                  -0.689927       -46.20793
1.812                 -0.7011174       -46.48899
1.816                 -0.7125264        -46.7733
1.82                  -0.7241641        -47.0609
1.824                 -0.7360395       -47.35184
1.828                 -0.7481636       -47.64619
1.832                 -0.7605476         -47.944
1.836                 -0.7732026       -48.24531
1.84                  -0.7861406        -48.5502
1.844                 -0.7993734        -48.8587
1.848                 -0.8129134       -49.17088
1.852                 -0.8267736       -49.48678
1.856                 -0.8409664       -49.80645
1.86                  -0.8555036       -50.12995
1.864                 -0.8704005       -50.45731
1.868                 -0.8856697       -50.78859
1.872                 -0.9013269       -51.12383
1.876                 -0.9173836       -51.46308
1.88                  -0.9338565       -51.80637
1.884                 -0.9507589       -52.15378
1.888                 -0.9681089       -52.50531
1.892                 -0.9859185       -52.86101
1.896                  -1.004205       -53.22094
1.9                    -1.022983       -53.58512
1.904                  -1.042269        -53.9536
1.908                  -1.062082        -54.3264
1.912                  -1.082434       -54.70358
1.916                  -1.103345       -55.08515
1.92                    -1.12483       -55.47115
1.924                  -1.146908       -55.86161
1.928                  -1.169597       -56.25659
1.932                  -1.192912       -56.65607
1.936                  -1.216872       -57.06012
1.94                   -1.241496       -57.46875
1.944                  -1.266802       -57.88201
1.948                  -1.292806       -58.29988
1.952                  -1.319532       -58.72244
1.956                  -1.346994       -59.14968
1.96                   -1.375212       -59.58163
1.964                  -1.404208       -60.01833
1.968                  -1.433998       -60.45978
1.972                  -1.464606       -60.90603
1.976                  -1.496047       -61.35707
1.98                   -1.528345       -61.81296
1.984                  -1.561517       -62.27369
1.988                  -1.595587       -62.73929
1.992                  -1.630573       -63.20979
1.996                  -1.666499       -63.68521
2                      -1.703384       -64.16556
2.004                  -1.741249       -64.65086
2.008                  -1.780118       -65.14115
2.012                  -1.820011       -65.63643
2.016                   -1.86095       -66.13675
2.02                    -1.90296       -66.64208
2.024                  -1.946061       -67.15252
2.028                  -1.990278       -67.66802
2.032                  -2.035632       -68.18863
2.036                   -2.08215        -68.7144
2.04                   -2.129853       -69.24533
2.044                  -2.178767       -69.78144
2.048                  -2.228915       -70.32279
2.052                  -2.280324       -70.86937
2.056                  -2.333018       -71.42125
2.06                   -2.387022       -71.97843
2.064                  -2.442363       -72.54096
2.068                  -2.499068       -73.10888
2.072                  -2.557164       -73.68223
2.076                  -2.616677       -74.26102
2.08                   -2.677637       -74.84535
2.084                   -2.74007       -75.43521
2.088                  -2.804006        -76.0307
2.092                  -2.869478       -76.63184
2.096                  -2.936509       -77.23868
2.1                    -3.005135       -77.85131
2.104                  -3.075387       -78.46977
2.108                  -3.147294       -79.09415
2.112                  -3.220891       -79.72449
2.116                  -3.296211        -80.3609
2.12                   -3.373287       -81.00344
2.124                  -3.452156       -81.65222
2.128                  -3.532851       -82.30731
2.132                  -3.615411       -82.96883
2.136                  -3.699873       -83.63685
2.14                   -3.786275       -84.31155
2.144                  -3.874657         -84.993
2.148                  -3.965058       -85.68136
2.152                  -4.057522       -86.37675
2.156                   -4.15209       -87.07933
2.16                   -4.248808       -87.78926
2.164                  -4.347718       -88.50672
2.168                  -4.448868       -89.23187
2.172                  -4.552307       -89.96491
2.176                  -4.658082       -90.70607
2.18                   -4.766247       -91.45555
2.184                  -4.876851        -92.2136
2.188                   -4.98995       -92.98047
2.192                  -5.105597       -93.75643
2.196                  -5.223853       -94.54179
2.2                    -5.344775       -95.33688
2.204                  -5.468423         -96.142
2.208                  -5.594862       -96.95752
2.212                  -5.724155       -97.78383
2.216                  -5.856372       -98.62136
2.22                    -5.99158       -99.47051
2.224                  -6.129849       -100.3318
2.228                  -6.271255       -101.2058
2.232                  -6.415872        -102.093
2.236                   -6.56378       -102.9939
2.24                   -6.715059       -103.9094
2.244                  -6.869793       -104.8399
2.248                  -7.028065       -105.7864
2.252                  -7.189965       -106.7495
2.256                  -7.355581       -107.7302
2.26                   -7.525006       -108.7294
2.264                  -7.698334       -109.7481
2.268                  -7.875661       -110.7875
2.272                  -8.057086       -111.8487
2.276                  -8.242704        -112.933
2.28                   -8.432619       -114.0417
2.284                  -8.626927       -115.1766
2.288                  -8.825727       -116.3391
2.292                  -9.029119        -117.531
2.296                  -9.237195       -118.7545
2.3                    -9.450049       -120.0114
2.304                  -9.667765       -121.3043
2.308                  -9.890419       -122.6355
2.312                  -10.11808       -124.0079
2.316                   -10.3508       -125.4244
2.32                   -10.58861       -126.8882
2.324                  -10.83154        -128.403
2.328                  -11.07956       -129.9725
2.332                  -11.33264        -131.601
2.336                  -11.59067       -133.2931
2.34                   -11.85353       -135.0535
2.344                  -12.12101       -136.8877
2.348                  -12.39282       -138.8014
2.352                   -12.6686       -140.8007
2.356                  -12.94787        -142.892
2.36                   -13.23002       -145.0823
2.364                  -13.51429       -147.3788
2.368                  -13.79973       -149.7887
2.372                  -14.08519       -152.3196
2.376                  -14.36929       -154.9787
2.38                    -14.6504       -157.7731
2.384                  -14.92658        -160.709
2.388                  -15.19562       -163.7916
2.392                  -15.45499       -167.0244
2.396                  -15.70188       -170.4088
2.4                    -15.93325       -173.9435
2.404                  -16.14585       -177.6238