! TOUCHSTONE file generated by CST MICROWAVE STUDIO
! Date and time: Fri May  6 09:22:55 2022
! Project name: ant1_ceramic_sweep_10porcent.cst
! Parameters = {e=0.035; h=1.6; i=0.8; l1=0.5; l2=17; ls=80; wl=1.7; ws=30.3}
! Header version: 2018
! Port assignment regex: !\s*Touchstone port\s*([0-9]+)\s*=\s*(CST MWS port|CST DS port)\s*([0-9]+|Zmin|Zmax)\s*\(\"(.*)\"\)(\s*mode\s*([0-9]+))?.*
! Touchstone port assignment:
! Touchstone port 1 = CST MWS port 1 ("")
# GHz S DB R 50
0                  -0.0001170054              -0
0.004              -0.0001308536     -0.06017181
0.008              -0.0001703303      -0.1203356
0.012              -0.0002338905      -0.1804834
0.016              -0.0003251721      -0.2406072
0.02               -0.0004410878      -0.3006991
0.024               -0.000581662      -0.3607513
0.028              -0.0007474421      -0.4207562
0.032              -0.0009374276      -0.4807061
0.036                -0.00115114      -0.5405937
0.04                -0.001388106      -0.6004117
0.044               -0.001648374      -0.6601529
0.048               -0.001930444      -0.7198106
0.052               -0.002233856      -0.7793782
0.056               -0.002557117      -0.8388492
0.06                -0.002900808      -0.8982174
0.064               -0.003263962      -0.9574774
0.068               -0.003645095       -1.016623
0.072               -0.004042726        -1.07565
0.076               -0.004455895       -1.134552
0.08                -0.004883642       -1.193326
0.084               -0.005326563       -1.251966
0.088               -0.005781631        -1.31047
0.092               -0.006248923       -1.368834
0.096               -0.006725414       -1.427055
0.1                 -0.007211181       -1.485129
0.104               -0.007704752       -1.543055
0.108               -0.008206205       -1.600832
0.112               -0.008710953       -1.658457
0.116               -0.009221147       -1.715929
0.12                -0.009733749       -1.773249
0.124                -0.01024832       -1.830415
0.128                 -0.0107618       -1.887429
0.132                 -0.0112748        -1.94429
0.136                -0.01178425       -2.001001
0.14                 -0.01229125       -2.057563
0.144                -0.01279276       -2.113978
0.148                -0.01328777       -2.170248
0.152                -0.01377427       -2.226377
0.156                 -0.0142523       -2.282367
0.16                  -0.0147198       -2.338224
0.164                -0.01517631        -2.39395
0.168                -0.01562028       -2.449551
0.172                -0.01605019       -2.505031
0.176                -0.01646603       -2.560397
0.18                  -0.0168647       -2.615653
0.184                -0.01724622       -2.670806
0.188                -0.01761005       -2.725862
0.192                -0.01795514       -2.780829
0.196                -0.01828043       -2.835713
0.2                  -0.01858383       -2.890521
0.204                -0.01886738       -2.945262
0.208                -0.01912792       -2.999944
0.212                -0.01936488       -3.054574
0.216                -0.01957875       -3.109162
0.22                 -0.01976893       -3.163716
0.224                -0.01993328       -3.218244
0.228                 -0.0200733       -3.272756
0.232                -0.02018734       -3.327261
0.236                -0.02027532       -3.381769
0.24                 -0.02033766       -3.436288
0.244                -0.02037428       -3.490828
0.248                 -0.0203835         -3.5454
0.252                -0.02036574        -3.60001
0.256                -0.02032296       -3.654672
0.26                 -0.02025245       -3.709393
0.264                 -0.0201572       -3.764182
0.268                -0.02003551       -3.819051
0.272                -0.01988778       -3.874008
0.276                -0.01971542       -3.929062
0.28                 -0.01951725       -3.984222
0.284                -0.01929573       -4.039498
0.288                -0.01904914       -4.094899
0.292                -0.01878097       -4.150433
0.296                -0.01848899       -4.206108
0.3                  -0.01817563       -4.261934
0.304                -0.01784179       -4.317917
0.308                -0.01748728       -4.374066
0.312                -0.01711351       -4.430389
0.316                -0.01672084       -4.486891
0.32                 -0.01631222       -4.543581
0.324                -0.01588696       -4.600465
0.328                -0.01544647       -4.657549
0.332                 -0.0149916       -4.714838
0.336                -0.01452533       -4.772339
0.34                 -0.01404593       -4.830056
0.344                -0.01355688       -4.887993
0.348                -0.01305855       -4.946155
0.352                -0.01255284       -5.004547
0.356                -0.01204065       -5.063171
0.36                 -0.01152237       -5.122029
0.364                -0.01100097       -5.181124
0.368                -0.01047733       -5.240461
0.372               -0.009953411       -5.300037
0.376               -0.009428033       -5.359856
0.38                -0.008906274       -5.419919
0.384               -0.008386976       -5.480225
0.388               -0.007871079       -5.540773
0.392               -0.007362614       -5.601565
0.396               -0.006860996       -5.662596
0.4                 -0.006367645       -5.723869
0.404               -0.005884074       -5.785379
0.408               -0.005412283       -5.847124
0.412               -0.004952193       -5.909101
0.416               -0.004506351       -5.971308
0.42                 -0.00407575        -6.03374
0.424               -0.003661381       -6.096393
0.428               -0.003264758       -6.159265
0.432               -0.002884344       -6.222346
0.436               -0.002525275       -6.285636
0.44                -0.002186007       -6.349127
0.444               -0.001868123       -6.412813
0.448               -0.001572623        -6.47669
0.452               -0.001300634       -6.540748
0.456               -0.001052166       -6.604983
0.46               -0.0008282878       -6.669387
0.464               -0.000630613       -6.733954
0.468              -0.0004587021       -6.798675
0.472              -0.0003126205       -6.863542
0.476                -0.00019504        -6.92855
0.48               -0.0001044869       -6.993688
0.484              -4.160457e-05       -7.058949
0.488              -6.978975e-06       -7.124325
0.492              -2.381549e-07       -7.189807
0.496              -2.302296e-05       -7.255389
0.5                -7.499911e-05       -7.321058
0.504              -0.0001551942       -7.386811
0.508              -0.0002627575       -7.452635
0.512              -0.0003993452       -7.518525
0.516              -0.0005651464        -7.58447
0.52               -0.0007582365       -7.650464
0.524              -0.0009803064       -7.716497
0.528               -0.001227887       -7.782563
0.532                -0.00150482       -7.848651
0.536               -0.001805491       -7.914755
0.54                -0.002133736       -7.980869
0.544               -0.002485032       -8.046983
0.548               -0.002862145       -8.113093
0.552               -0.003261643       -8.179187
0.556               -0.003684637       -8.245265
0.56                -0.004129277       -8.311316
0.564               -0.004594671       -8.377335
0.568               -0.005079399       -8.443318
0.572               -0.005582081       -8.509256
0.576               -0.006103317       -8.575149
0.58                -0.006641222       -8.640988
0.584               -0.007192777       -8.706772
0.588               -0.007761225       -8.772496
0.592               -0.008338863       -8.838157
0.596               -0.008929964       -8.903752
0.6                 -0.009529469       -8.969277
0.604                 -0.0101384       -9.034733
0.608                -0.01075477       -9.100119
0.612                -0.01137664        -9.16543
0.616                -0.01200142       -9.230665
0.62                 -0.01263063        -9.29583
0.624                -0.01326016       -9.360922
0.628                 -0.0138906       -9.425941
0.632                -0.01451819        -9.49089
0.636                -0.01514351        -9.55577
0.64                 -0.01576493       -9.620584
0.644                -0.01637923       -9.685336
0.648                 -0.0169874       -9.750029
0.652                -0.01758471       -9.814664
0.656                -0.01817464        -9.87925
0.66                 -0.01875141       -9.943788
0.664                -0.01931477       -10.00829
0.668                -0.01986358       -10.07275
0.672                -0.02039821       -10.13718
0.676                -0.02091633        -10.2016
0.68                 -0.02141565         -10.266
0.684                -0.02189549       -10.33039
0.688                -0.02235558       -10.39479
0.692                -0.02279351       -10.45919
0.696                -0.02321112       -10.52361
0.7                   -0.0236045       -10.58807
0.704                -0.02397336       -10.65255
0.708                -0.02431786       -10.71709
0.712                -0.02463712       -10.78168
0.716                -0.02492926       -10.84635
0.72                 -0.02519393       -10.91109
0.724                -0.02543173       -10.97592
0.728                -0.02564225       -11.04085
0.732                 -0.0258242       -11.10589
0.736                 -0.0259775       -11.17106
0.74                 -0.02610184       -11.23636
0.744                -0.02619621       -11.30181
0.748                -0.02626281       -11.36741
0.752                -0.02629958       -11.43319
0.756                -0.02630811       -11.49915
0.76                 -0.02628802        -11.5653
0.764                -0.02623825       -11.63166
0.768                -0.02615992       -11.69824
0.772                -0.02605404       -11.76505
0.776                -0.02592226        -11.8321
0.78                 -0.02576304        -11.8994
0.784                -0.02557692       -11.96696
0.788                -0.02536549        -12.0348
0.792                 -0.0251309       -12.10293
0.796                -0.02487049       -12.17135
0.8                  -0.02458856       -12.24008
0.804                -0.02428347       -12.30912
0.808                -0.02395892        -12.3785
0.812                -0.02361455       -12.44821
0.816                -0.02325191       -12.51826
0.82                 -0.02287104       -12.58867
0.824                  -0.022475       -12.65944
0.828                -0.02206459       -12.73059
0.832                -0.02164085       -12.80211
0.836                -0.02120594       -12.87402
0.84                  -0.0207616       -12.94632
0.844                 -0.0203083       -13.01902
0.848                -0.01984683       -13.09212
0.852                -0.01938097       -13.16563
0.856                -0.01891184       -13.23956
0.86                 -0.01844127        -13.3139
0.864                -0.01796936       -13.38867
0.868                -0.01749894       -13.46386
0.872                -0.01703188       -13.53948
0.876                -0.01656932       -13.61554
0.88                 -0.01611369       -13.69202
0.884                -0.01566631       -13.76893
0.888                 -0.0152295       -13.84628
0.892                -0.01480362       -13.92406
0.896                -0.01439214       -14.00228
0.9                  -0.01399541       -14.08092
0.904                -0.01361584          -14.16
0.908                -0.01325441        -14.2395
0.912                -0.01291367       -14.31942
0.916                -0.01259497       -14.39977
0.92                 -0.01229783       -14.48054
0.924                -0.01202631       -14.56172
0.928                -0.01178159       -14.64331
0.932                -0.01156448        -14.7253
0.936                -0.01137629       -14.80769
0.94                 -0.01121848       -14.89048
0.944                -0.01109225       -14.97365
0.948                -0.01099761        -15.0572
0.952                -0.01093736       -15.14112
0.956                -0.01091314       -15.22541
0.96                 -0.01092407       -15.31006
0.964                -0.01097088       -15.39505
0.968                -0.01105681       -15.48039
0.972                -0.01118113       -15.56606
0.976                -0.01134389       -15.65205
0.98                 -0.01154587       -15.73836
0.984                -0.01178911       -15.82498
0.988                -0.01207208       -15.91189
0.992                -0.01239712       -15.99909
0.996                -0.01276256       -16.08657
1                    -0.01316922       -16.17431
1.004                -0.01361778       -16.26232
1.008                  -0.014107       -16.35057
1.012                -0.01463832       -16.43907
1.016                -0.01521044        -16.5278
1.02                 -0.01582415       -16.61675
1.024                -0.01647689        -16.7059
1.028                -0.01717061       -16.79529
1.032                -0.01790415       -16.88482
1.036                -0.01867601       -16.97459
1.04                 -0.01948549       -17.06451
1.044                -0.02033325       -17.15461
1.048                -0.02121694       -17.24488
1.052                -0.02213638       -17.33531
1.056                -0.02309042       -17.42585
1.06                 -0.02407779       -17.51658
1.064                -0.02509746       -17.60742
1.068                -0.02614761        -17.6984
1.072                -0.02722745       -17.78949
1.076                 -0.0283359       -17.88071
1.08                   -0.029471       -17.97202
1.084                -0.03063139       -18.06349
1.088                -0.03181501       -18.15504
1.092                -0.03302184       -18.24668
1.096                -0.03424822       -18.33845
1.1                  -0.03549366       -18.43033
1.104                -0.03675531       -18.52229
1.108                -0.03803426       -18.61436
1.112                -0.03932537       -18.70654
1.116                -0.04062907        -18.7988
1.12                 -0.04194221        -18.8912
1.124                -0.04326266       -18.98368
1.128                -0.04459079       -19.07629
1.132                -0.04592293         -19.169
1.136                -0.04725692       -19.26184
1.14                 -0.04859187        -19.3548
1.144                -0.04992592       -19.44789
1.148                -0.05125654       -19.54112
1.152                -0.05258373        -19.6345
1.156                -0.05390295       -19.72803
1.16                 -0.05521395       -19.82173
1.164                 -0.0565157       -19.91559
1.168                -0.05780514       -20.00964
1.172                -0.05908216       -20.10388
1.176                -0.06034542       -20.19833
1.18                 -0.06159058         -20.293
1.184                -0.06281885       -20.38789
1.188                -0.06402859       -20.48303
1.192                -0.06521731       -20.57842
1.196                -0.06638469       -20.67409
1.2                  -0.06752977       -20.77004
1.204                -0.06865064        -20.8663
1.208                 -0.0697478       -20.96288
1.212                -0.07081819       -21.05979
1.216                -0.07186327       -21.15705
1.22                 -0.07288054       -21.25469
1.224                 -0.0738706       -21.35271
1.228                  -0.074833       -21.45114
1.232                -0.07576682       -21.54999
1.236                -0.07667176       -21.64929
1.24                  -0.0775491       -21.74906
1.244                -0.07839655        -21.8493
1.248                -0.07921565       -21.95004
1.252                -0.08000627       -22.05131
1.256                -0.08076914       -22.15311
1.26                 -0.08150312       -22.25548
1.264                -0.08221064       -22.35843
1.268                -0.08289129       -22.46198
1.272                -0.08354695       -22.56614
1.276                -0.08417726       -22.67096
1.28                 -0.08478369       -22.77642
1.284                -0.08536804       -22.88257
1.288                -0.08593134       -22.98942
1.292                -0.08647447       -23.09698
1.296                -0.08699881       -23.20528
1.3                  -0.08750569       -23.31434
1.304                -0.08799893       -23.42417
1.308                  -0.088478       -23.53479
1.312                -0.08894588       -23.64622
1.316                -0.08940394       -23.75847
1.32                 -0.08985512       -23.87157
1.324                -0.09030084       -23.98552
1.328                -0.09074399       -24.10035
1.332                -0.09118674       -24.21607
1.336                -0.09163204       -24.33269
1.34                 -0.09208085       -24.45023
1.344                -0.09253792       -24.56871
1.348                -0.09300406       -24.68812
1.352                -0.09348347       -24.80849
1.356                -0.09397714       -24.92983
1.36                 -0.09448893       -25.05215
1.364                -0.09502268       -25.17545
1.368                -0.09557993       -25.29976
1.372                -0.09616417       -25.42507
1.376                -0.09677807       -25.55139
1.38                 -0.09742544       -25.67873
1.384                -0.09810842       -25.80711
1.388                -0.09882998       -25.93651
1.392                -0.09959328       -26.06696
1.396                 -0.1004008       -26.19844
1.4                   -0.1012574       -26.33098
1.404                 -0.1021648       -26.46456
1.408                 -0.1031261       -26.59919
1.412                 -0.1041442       -26.73488
1.416                 -0.1052226       -26.87163
1.42                  -0.1063617       -27.00942
1.424                 -0.1075674       -27.14827
1.428                 -0.1088422       -27.28817
1.432                 -0.1101867       -27.42912
1.436                 -0.1116056       -27.57112
1.44                  -0.1131001       -27.71416
1.444                 -0.1146749       -27.85824
1.448                  -0.116328       -28.00336
1.452                 -0.1180671       -28.14951
1.456                 -0.1198909       -28.29669
1.46                  -0.1218038       -28.44489
1.464                 -0.1238066       -28.59411
1.468                 -0.1259025       -28.74433
1.472                 -0.1280912       -28.89556
1.476                 -0.1303773       -29.04779
1.48                  -0.1327603         -29.201
1.484                 -0.1352436        -29.3552
1.488                  -0.137826       -29.51037
1.492                 -0.1405118        -29.6665
1.496                 -0.1433009        -29.8236
1.5                   -0.1461951       -29.98164
1.504                 -0.1491952       -30.14063
1.508                 -0.1523018       -30.30056
1.512                 -0.1555155       -30.46141
1.516                 -0.1588368       -30.62318
1.52                  -0.1622685       -30.78587
1.524                 -0.1658072       -30.94945
1.528                 -0.1694561       -31.11394
1.532                 -0.1732148       -31.27932
1.536                 -0.1770841       -31.44559
1.54                   -0.181061       -31.61274
1.544                 -0.1851483       -31.78077
1.548                  -0.189344       -31.94966
1.552                 -0.1936491       -32.11941
1.556                 -0.1980623       -32.29004
1.56                  -0.2025836       -32.46152
1.564                 -0.2072113       -32.63386
1.568                 -0.2119455       -32.80707
1.572                 -0.2167852       -32.98112
1.576                 -0.2217295       -33.15604
1.58                  -0.2267755        -33.3318
1.584                 -0.2319255       -33.50844
1.588                 -0.2371748       -33.68593
1.592                 -0.2425251       -33.86429
1.596                  -0.247974       -34.04352
1.6                   -0.2535187       -34.22364
1.604                 -0.2591583       -34.40464
1.608                 -0.2648934       -34.58653
1.612                 -0.2707204       -34.76933
1.616                 -0.2766382       -34.95305
1.62                  -0.2826465       -35.13769
1.624                 -0.2887406       -35.32328
1.628                 -0.2949221       -35.50982
1.632                  -0.301189       -35.69734
1.636                  -0.307539       -35.88584
1.64                  -0.3139695       -36.07536
1.644                  -0.320482       -36.26591
1.648                 -0.3270728       -36.45751
1.652                 -0.3337405       -36.65018
1.656                  -0.340486       -36.84396
1.66                  -0.3473061       -37.03886
1.664                 -0.3541992        -37.2349
1.668                 -0.3611665       -37.43215
1.672                 -0.3682053       -37.63059
1.676                 -0.3753145       -37.83028
1.68                  -0.3824947       -38.03124
1.684                 -0.3897453       -38.23352
1.688                  -0.397066       -38.43714
1.692                 -0.4044555       -38.64216
1.696                 -0.4119152       -38.84859
1.7                   -0.4194417       -39.05648
1.704                   -0.42704       -39.26588
1.708                 -0.4347086       -39.47682
1.712                 -0.4424481       -39.68936
1.716                 -0.4502583       -39.90352
1.72                  -0.4581427       -40.11937
1.724                 -0.4661004       -40.33693
1.728                 -0.4741352       -40.55628
1.732                 -0.4822471       -40.77746
1.736                 -0.4904392        -41.0005
1.74                   -0.498713       -41.22546
1.744                  -0.507072        -41.4524
1.748                 -0.5155193       -41.68137
1.752                 -0.5240577       -41.91243
1.756                 -0.5326904       -42.14562
1.76                  -0.5414217         -42.381
1.764                 -0.5502547       -42.61863
1.768                 -0.5591942       -42.85855
1.772                 -0.5682468       -43.10084
1.776                 -0.5774158       -43.34553
1.78                  -0.5867053        -43.5927
1.784                 -0.5961229       -43.84239
1.788                 -0.6056735       -44.09467
1.792                 -0.6153657        -44.3496
1.796                 -0.6252028       -44.60722
1.8                   -0.6351935        -44.8676
1.804                 -0.6453454        -45.1308
1.808                  -0.655666       -45.39686
1.812                 -0.6661613       -45.66586
1.816                 -0.6768431       -45.93785
1.82                  -0.6877168       -46.21288
1.824                 -0.6987926       -46.49101
1.828                 -0.7100812        -46.7723
1.832                 -0.7215892       -47.05679
1.836                 -0.7333292       -47.34456
1.84                  -0.7453092       -47.63564
1.844                 -0.7575415       -47.93009
1.848                 -0.7700371       -48.22799
1.852                 -0.7828045       -48.52935
1.856                 -0.7958577       -48.83424
1.86                  -0.8092087       -49.14273
1.864                 -0.8228677       -49.45484
1.868                 -0.8368487       -49.77064
1.872                 -0.8511622       -50.09016
1.876                 -0.8658246       -50.41347
1.88                  -0.8808451       -50.74058
1.884                 -0.8962404       -51.07158
1.888                  -0.912023        -51.4065
1.892                 -0.9282072       -51.74537
1.896                 -0.9448062       -52.08823
1.9                   -0.9618367       -52.43515
1.904                 -0.9793109       -52.78614
1.908                 -0.9972442       -53.14124
1.912                  -1.015654       -53.50051
1.916                  -1.034555       -53.86398
1.92                   -1.053962       -54.23168
1.924                  -1.073892       -54.60365
1.928                   -1.09436       -54.97993
1.932                  -1.115383       -55.36053
1.936                  -1.136978       -55.74551
1.94                   -1.159162       -56.13489
1.944                   -1.18195       -56.52869
1.948                  -1.205363       -56.92695
1.952                  -1.229414       -57.32969
1.956                  -1.254125       -57.73696
1.96                   -1.279511       -58.14877
1.964                  -1.305591       -58.56514
1.968                  -1.332384       -58.98611
1.972                  -1.359907        -59.4117
1.976                  -1.388179       -59.84192
1.98                   -1.417219       -60.27681
1.984                  -1.447046       -60.71637
1.988                   -1.47768       -61.16067
1.992                   -1.50914       -61.60968
1.996                  -1.541446       -62.06345
2                      -1.574618         -62.522
2.004                  -1.608674       -62.98535
2.008                  -1.643636       -63.45351
2.012                  -1.679525       -63.92651
2.016                   -1.71636       -64.40436
2.02                   -1.754164       -64.88708
2.024                  -1.792957       -65.37473
2.028                   -1.83276       -65.86727
2.032                  -1.873596       -66.36477
2.036                  -1.915485       -66.86723
2.04                   -1.958451       -67.37467
2.044                  -2.002516       -67.88713
2.048                  -2.047701       -68.40463
2.052                  -2.094032       -68.92716
2.056                  -2.141531       -69.45481
2.06                   -2.190221       -69.98755
2.064                  -2.240126       -70.52543
2.068                   -2.29127       -71.06848
2.072                  -2.343681       -71.61674
2.076                   -2.39738       -72.17022
2.08                   -2.452394       -72.72898
2.084                  -2.508749       -73.29302
2.088                   -2.56647       -73.86241
2.092                  -2.625587       -74.43719
2.096                  -2.686123        -75.0174
2.1                    -2.748107       -75.60306
2.104                  -2.811568       -76.19424
2.108                  -2.876535       -76.79101
2.112                  -2.943036       -77.39339
2.116                  -3.011102       -78.00145
2.12                   -3.080762       -78.61527
2.124                   -3.15205        -79.2349
2.128                  -3.224992       -79.86043
2.132                  -3.299626        -80.4919
2.136                  -3.375983       -81.12942
2.14                   -3.454097       -81.77306
2.144                  -3.534001       -82.42293
2.148                  -3.615734       -83.07912
2.152                   -3.69933       -83.74173
2.156                  -3.784825       -84.41088
2.16                   -3.872261       -85.08668
2.164                  -3.961675       -85.76928
2.168                  -4.053107       -86.45877
2.172                    -4.1466       -87.15535
2.176                  -4.242193       -87.85912
2.18                   -4.339934        -88.5703
2.184                  -4.439865       -89.28904
2.188                  -4.542034       -90.01552
2.192                  -4.646486       -90.74995
2.196                  -4.753273       -91.49257
2.2                    -4.862444       -92.24357
2.204                  -4.974049       -93.00323
2.208                  -5.088146        -93.7718
2.212                  -5.204787       -94.54955
2.216                  -5.324027       -95.33683
2.22                   -5.445929       -96.13391
2.224                  -5.570551       -96.94117
2.228                  -5.697956       -97.75896
2.232                  -5.828208       -98.58771
2.236                  -5.961373       -99.42781
2.24                   -6.097522       -100.2798
2.244                  -6.236721        -101.144
2.248                  -6.379046       -102.0212
2.252                  -6.524571       -102.9117
2.256                  -6.673373       -103.8163
2.26                   -6.825531       -104.7356
2.264                  -6.981127       -105.6703
2.268                  -7.140245       -106.6212
2.272                  -7.302971       -107.5891
2.276                  -7.469392       -108.5749
2.28                   -7.639598       -109.5795
2.284                  -7.813681       -110.6041
2.288                  -7.991735       -111.6497
2.292                  -8.173852       -112.7176
2.296                  -8.360128        -113.809
2.3                    -8.550658       -114.9255
2.304                  -8.745536       -116.0685
2.308                  -8.944857       -117.2398
2.312                  -9.148713       -118.4412
2.316                  -9.357189       -119.6747
2.32                    -9.57037       -120.9424
2.324                  -9.788329       -122.2467
2.328                  -10.01114       -123.5902
2.332                  -10.23885       -124.9757
2.336                   -10.4715       -126.4061
2.34                   -10.70911       -127.8848
2.344                  -10.95169       -129.4154
2.348                  -11.19919       -131.0018
2.352                  -11.45154       -132.6481
2.356                  -11.70864        -134.359
2.36                   -11.97031       -136.1393
2.364                  -12.23632       -137.9945
2.368                  -12.50634       -139.9301
2.372                  -12.77998       -141.9523
2.376                  -13.05669       -144.0673
2.38                   -13.33583       -146.2821
2.384                  -13.61657       -148.6035
2.388                  -13.89793       -151.0386
2.392                  -14.17869       -153.5945
2.396                  -14.45741       -156.2781
2.4                    -14.73242       -159.0958
2.404                  -15.00173       -162.0531