! TOUCHSTONE file generated by CST MICROWAVE STUDIO
! Date and time: Fri May  6 09:22:47 2022
! Project name: ant1_ceramic_sweep_10porcent.cst
! Parameters = {e=0.035; h=1.6; i=0.792; l1=0.5; l2=17; ls=80; wl=1.7; ws=30}
! Header version: 2018
! Port assignment regex: !\s*Touchstone port\s*([0-9]+)\s*=\s*(CST MWS port|CST DS port)\s*([0-9]+|Zmin|Zmax)\s*\(\"(.*)\"\)(\s*mode\s*([0-9]+))?.*
! Touchstone port assignment:
! Touchstone port 1 = CST MWS port 1 ("")
# GHz S DB R 50
0                  -0.0001242535              -0
0.004              -0.0001365658     -0.06006371
0.008              -0.0001766119      -0.1201194
0.012              -0.0002407759      -0.1801589
0.016              -0.0003321781      -0.2401742
0.02               -0.0004487669      -0.3001574
0.024              -0.0005910844      -0.3601007
0.028              -0.0007576074      -0.4199963
0.032              -0.0009494063      -0.4798365
0.036               -0.001164968      -0.5396138
0.04                -0.001404336      -0.5993211
0.044               -0.001665489      -0.6589511
0.048               -0.001949516      -0.7184969
0.052               -0.002253886      -0.7779518
0.056                -0.00258073      -0.8373095
0.06                -0.002925971      -0.8965637
0.064               -0.003292265       -0.955709
0.068               -0.003674506       -1.014739
0.072               -0.004075355       -1.073649
0.076               -0.004492299       -1.132434
0.08                -0.004923859       -1.191089
0.084               -0.005369079        -1.24961
0.088               -0.005826487       -1.307993
0.092                -0.00629616       -1.366236
0.096               -0.006776107       -1.424333
0.1                 -0.007265374       -1.482284
0.104               -0.007762485       -1.540085
0.108               -0.008267003       -1.597736
0.112               -0.008776415       -1.655233
0.116               -0.009289242       -1.712577
0.12                -0.009805558       -1.769767
0.124                -0.01032336       -1.826802
0.128                -0.01084065       -1.883684
0.132                -0.01135646       -1.940413
0.136                -0.01187084       -1.996989
0.14                 -0.01238126       -2.053415
0.144                -0.01288571       -2.109693
0.148                -0.01338424       -2.165825
0.152                 -0.0138743       -2.221815
0.156                -0.01435489       -2.277665
0.16                 -0.01482554        -2.33338
0.164                -0.01528574       -2.388963
0.168                -0.01573243       -2.444421
0.172                 -0.0161656       -2.499757
0.176                 -0.0165827       -2.554976
0.18                 -0.01698579       -2.610085
0.184                 -0.0173702       -2.665091
0.188                -0.01773646       -2.719998
0.192                -0.01808351       -2.774815
0.196                -0.01841082       -2.829549
0.2                  -0.01871731       -2.884206
0.204                -0.01900244       -2.938796
0.208                 -0.0192641       -2.993324
0.212                -0.01950379       -3.047802
0.216                -0.01971834       -3.102236
0.22                 -0.01990979       -3.156635
0.224                -0.02007597       -3.211008
0.228                -0.02021631       -3.265365
0.232                -0.02033123       -3.319714
0.236                -0.02042066       -3.374066
0.24                 -0.02048347       -3.428428
0.244                -0.02051955       -3.482812
0.248                -0.02052933       -3.537226
0.252                -0.02051217       -3.591681
0.256                  -0.020469       -3.646186
0.26                 -0.02039814       -3.700749
0.264                -0.02030155       -3.755382
0.268                 -0.0201791       -3.810094
0.272                -0.02003063       -3.864895
0.276                -0.01985655       -3.919792
0.28                 -0.01965723       -3.974796
0.284                -0.01943407       -4.029917
0.288                -0.01918693       -4.085163
0.292                -0.01891669       -4.140543
0.296                -0.01862269       -4.196064
0.3                  -0.01830787       -4.251736
0.304                -0.01797053       -4.307566
0.308                -0.01761361       -4.363563
0.312                -0.01723799       -4.419734
0.316                 -0.0168435       -4.476086
0.32                 -0.01643155       -4.532627
0.324                -0.01600299       -4.589362
0.328                -0.01555874       -4.646296
0.332                 -0.0151017       -4.703439
0.336                -0.01463173       -4.760793
0.34                 -0.01414869       -4.818364
0.344                -0.01365653       -4.876158
0.348                -0.01315514       -4.934177
0.352                -0.01264537       -4.992426
0.356                 -0.0121297       -5.050907
0.36                 -0.01160847       -5.109626
0.364                -0.01108362       -5.168584
0.368                -0.01055608       -5.227781
0.372                -0.01002828       -5.287221
0.376               -0.009499577       -5.346905
0.38                -0.008974013       -5.406833
0.384               -0.008450428       -5.467005
0.388               -0.007932358       -5.527421
0.392                -0.00741864       -5.588081
0.396                -0.00691282       -5.648983
0.4                 -0.006417401       -5.710127
0.404               -0.005930768       -5.771508
0.408               -0.005453853       -5.833125
0.412               -0.004992311       -5.894977
0.416               -0.004542978       -5.957058
0.42                -0.004107873       -6.019366
0.424                -0.00369164       -6.081897
0.428               -0.003290606       -6.144644
0.432               -0.002907849       -6.207606
0.436               -0.002545992       -6.270774
0.44                -0.002204993       -6.334146
0.444               -0.001883847       -6.397712
0.448               -0.001586191        -6.46147
0.452                -0.00131205       -6.525411
0.456                -0.00106097       -6.589527
0.46                -0.000836048       -6.653815
0.464              -0.0006363626       -6.718265
0.468               -0.000462979        -6.78287
0.472               -0.000315463       -6.847622
0.476              -0.0001965094       -6.912512
0.48               -0.0001056254       -6.977537
0.484              -4.143711e-05       -7.042682
0.488               -6.58595e-06       -7.107943
0.492              -1.695756e-07       -7.173311
0.496              -2.230377e-05       -7.238777
0.5                -7.415391e-05       -7.304332
0.504              -0.0001542994       -7.369969
0.508              -0.0002618395       -7.435679
0.512              -0.0003995411       -7.501451
0.516              -0.0005664825       -7.567281
0.52               -0.0007602252       -7.633158
0.524              -0.0009824595       -7.699076
0.528                -0.00123189       -7.765021
0.532               -0.001508576       -7.830992
0.536               -0.001812703       -7.896979
0.54                -0.002141351       -7.962973
0.544               -0.002495215       -8.028967
0.548               -0.002873912       -8.094954
0.552               -0.003277068       -8.160929
0.556               -0.003701767       -8.226883
0.56                -0.004148191       -8.292808
0.564               -0.004616417       -8.358704
0.568               -0.005103563       -8.424559
0.572               -0.005610262       -8.490371
0.576                -0.00613457       -8.556135
0.58                -0.006674053       -8.621844
0.584               -0.007230853       -8.687499
0.588               -0.007801023        -8.75309
0.592               -0.008383557       -8.818618
0.596               -0.008977038       -8.884078
0.6                 -0.009580521       -8.949468
0.604                -0.01019304       -9.014786
0.608                -0.01081209        -9.08003
0.612                -0.01143768       -9.145201
0.616                -0.01206778       -9.210297
0.62                 -0.01269984       -9.275318
0.624                -0.01333393       -9.340263
0.628                -0.01396733       -9.405137
0.632                -0.01460014       -9.469937
0.636                -0.01522867       -9.534667
0.64                 -0.01585332       -9.599331
0.644                -0.01647206       -9.663929
0.648                -0.01708262       -9.728468
0.652                -0.01768505       -9.792947
0.656                -0.01827704       -9.857376
0.66                 -0.01885749       -9.921756
0.664                -0.01942362       -9.986094
0.668                 -0.0199779        -10.0504
0.672                -0.02051492       -10.11467
0.676                -0.02103397       -10.17892
0.68                 -0.02153647       -10.24315
0.684                -0.02201999       -10.30738
0.688                -0.02248232       -10.37161
0.692                -0.02292362       -10.43584
0.696                -0.02334266       -10.50009
0.7                  -0.02373806       -10.56437
0.704                -0.02410898       -10.62869
0.708                -0.02445565       -10.69305
0.712                -0.02477561       -10.75747
0.716                -0.02506956       -10.82196
0.72                 -0.02533663       -10.88652
0.724                 -0.0255754       -10.95118
0.728                -0.02578649       -11.01593
0.732                -0.02596795       -11.08079
0.736                -0.02612198       -11.14578
0.74                 -0.02624604        -11.2109
0.744                -0.02634124       -11.27617
0.748                -0.02640668        -11.3416
0.752                -0.02644389        -11.4072
0.756                -0.02645151       -11.47297
0.76                 -0.02642995       -11.53895
0.764                -0.02637929       -11.60513
0.768                -0.02630018       -11.67152
0.772                -0.02619314       -11.73815
0.776                -0.02605914       -11.80502
0.78                  -0.0258973       -11.87214
0.784                -0.02570915       -11.93952
0.788                -0.02549524       -12.00718
0.792                -0.02525771       -12.07513
0.796                -0.02499446       -12.14337
0.8                  -0.02470964       -12.21192
0.804                -0.02440235       -12.28079
0.808                -0.02407309       -12.34998
0.812                -0.02372556       -12.41952
0.816                -0.02335929        -12.4894
0.82                 -0.02297542       -12.55963
0.824                -0.02257492       -12.63023
0.828                -0.02216108        -12.7012
0.832                -0.02173346       -12.77255
0.836                -0.02129371       -12.84428
0.84                 -0.02084352       -12.91641
0.844                -0.02038656       -12.98894
0.848                -0.01992092       -13.06188
0.852                -0.01945041       -13.13522
0.856                -0.01897568       -13.20898
0.86                 -0.01849905       -13.28316
0.864                -0.01802317       -13.35776
0.868                -0.01754734       -13.43279
0.872                -0.01707537       -13.50825
0.876                -0.01660799       -13.58414
0.88                  -0.0161471       -13.66046
0.884                -0.01569545       -13.73722
0.888                -0.01525302       -13.81441
0.892                -0.01482251       -13.89203
0.896                -0.01440646       -13.97009
0.9                  -0.01400417       -14.04858
0.904                -0.01361968        -14.1275
0.908                -0.01325436       -14.20685
0.912                -0.01290821       -14.28663
0.916                -0.01258319       -14.36683
0.92                 -0.01228342       -14.44744
0.924                -0.01200769       -14.52848
0.928                -0.01175881       -14.60992
0.932                -0.01153675       -14.69176
0.936                -0.01134396       -14.77401
0.94                 -0.01118278       -14.85665
0.944                -0.01105221       -14.93967
0.948                -0.01095427       -15.02308
0.952                -0.01089187       -15.10686
0.956                -0.01086355         -15.191
0.96                 -0.01087182       -15.27551
0.964                -0.01091671       -15.36036
0.968                -0.01099975       -15.44556
0.972                 -0.0111212       -15.53108
0.976                -0.01128061       -15.61694
0.98                 -0.01148154        -15.7031
0.984                -0.01172213       -15.78958
0.988                -0.01200416       -15.87635
0.992                -0.01232687        -15.9634
0.996                -0.01269107       -16.05074
1                    -0.01309749       -16.13834
1.004                 -0.0135454       -16.22621
1.008                -0.01403372       -16.31432
1.012                -0.01456521       -16.40267
1.016                 -0.0151371       -16.49126
1.02                 -0.01574968       -16.58006
1.024                 -0.0164037       -16.66907
1.028                -0.01709771        -16.7583
1.032                -0.01783193       -16.84772
1.036                -0.01860467       -16.93733
1.04                 -0.01941561        -17.0271
1.044                -0.02026458       -17.11704
1.048                   -0.02115       -17.20715
1.052                -0.02207108       -17.29739
1.056                -0.02302759       -17.38782
1.06                 -0.02401671       -17.47836
1.064                 -0.0250379       -17.56904
1.068                -0.02609129       -17.65985
1.072                -0.02717312        -17.7508
1.076                -0.02828407       -17.84186
1.08                 -0.02942202       -17.93301
1.084                -0.03058565       -18.02429
1.088                -0.03177197       -18.11567
1.092                -0.03298142       -18.20714
1.096                -0.03421242       -18.29878
1.1                  -0.03546074       -18.39044
1.104                -0.03672676       -18.48224
1.108                -0.03800772       -18.57414
1.112                -0.03930234        -18.6661
1.116                -0.04060881        -18.7582
1.12                  -0.0419255       -18.85041
1.124                -0.04324981       -18.94273
1.128                 -0.0445814       -19.03511
1.132                -0.04591591       -19.12764
1.136                -0.04725396       -19.22028
1.14                 -0.04859216       -19.31304
1.144                -0.04992984       -19.40594
1.148                -0.05126361       -19.49896
1.152                -0.05259171       -19.59213
1.156                -0.05391516       -19.68546
1.16                 -0.05522905       -19.77894
1.164                -0.05653331       -19.87259
1.168                -0.05782498       -19.96643
1.172                -0.05910396       -20.06045
1.176                -0.06036932       -20.15468
1.18                 -0.06161648       -20.24912
1.184                -0.06284573       -20.34379
1.188                -0.06405677       -20.43871
1.192                -0.06524742       -20.53387
1.196                -0.06641589       -20.62931
1.2                  -0.06756027       -20.72503
1.204                -0.06868263       -20.82106
1.208                 -0.0697785        -20.9174
1.212                -0.07084981       -21.01408
1.216                -0.07189353       -21.11111
1.22                 -0.07291047        -21.2085
1.224                -0.07389961       -21.30628
1.228                -0.07486037       -21.40447
1.232                -0.07579293       -21.50308
1.236                -0.07669591       -21.60214
1.24                 -0.07756944       -21.70165
1.244                -0.07841423       -21.80165
1.248                -0.07923038       -21.90215
1.252                -0.08001718       -22.00317
1.256                -0.08077604       -22.10472
1.26                 -0.08150564       -22.20684
1.264                -0.08220888       -22.30954
1.268                -0.08288497       -22.41284
1.272                -0.08353572       -22.51675
1.276                -0.08416016       -22.62131
1.28                 -0.08476133       -22.72653
1.284                -0.08533872       -22.83243
1.288                -0.08589518       -22.93902
1.292                -0.08643065       -23.04634
1.296                -0.08694784       -23.15439
1.3                   -0.0874485       -23.26319
1.304                -0.08793227       -23.37277
1.308                 -0.0884026       -23.48314
1.312                -0.08886199       -23.59433
1.316                -0.08931102       -23.70633
1.32                 -0.08975354       -23.81918
1.324                -0.09019033        -23.9329
1.328                 -0.0906237       -24.04748
1.332                -0.09105594       -24.16295
1.336                -0.09149041       -24.27933
1.34                 -0.09192904       -24.39663
1.344                -0.09237541       -24.51486
1.348                -0.09283076       -24.63403
1.352                -0.09329865       -24.75417
1.356                -0.09378145       -24.87527
1.36                 -0.09428218       -24.99735
1.364                 -0.0948034       -25.12042
1.368                -0.09534879       -25.24449
1.372                -0.09592161       -25.36957
1.376                -0.09652308       -25.49566
1.38                 -0.09715762       -25.62277
1.384                 -0.0978282       -25.75091
1.388                -0.09853837       -25.88009
1.392                -0.09928872       -26.01031
1.396                 -0.1000848       -26.14158
1.4                   -0.1009284       -26.27389
1.404                 -0.1018242       -26.40725
1.408                 -0.1027716       -26.54166
1.412                 -0.1037775       -26.67713
1.416                 -0.1048433       -26.81365
1.42                  -0.1059706       -26.95123
1.424                 -0.1071644       -27.08986
1.428                 -0.1084258       -27.22954
1.432                 -0.1097595       -27.37028
1.436                 -0.1111658       -27.51207
1.44                  -0.1126481        -27.6549
1.444                   -0.11421       -27.79877
1.448                 -0.1158533       -27.94367
1.452                  -0.117581       -28.08962
1.456                  -0.119393       -28.23659
1.46                  -0.1212956       -28.38458
1.464                 -0.1232873       -28.53359
1.468                 -0.1253717       -28.68361
1.472                 -0.1275502       -28.83462
1.476                 -0.1298259       -28.98665
1.48                  -0.1321987       -29.13965
1.484                 -0.1346723       -29.29364
1.488                 -0.1372457        -29.4486
1.492                 -0.1399211       -29.60452
1.496                 -0.1427017       -29.76141
1.5                   -0.1455866       -29.91924
1.504                 -0.1485772       -30.07802
1.508                 -0.1516751       -30.23773
1.512                 -0.1548802       -30.39837
1.516                 -0.1581945       -30.55992
1.52                  -0.1616171       -30.72239
1.524                 -0.1651488       -30.88577
1.528                 -0.1687901       -31.05003
1.532                 -0.1725417        -31.2152
1.536                 -0.1764016       -31.38124
1.54                  -0.1803732       -31.54816
1.544                 -0.1844544       -31.71596
1.548                  -0.188643       -31.88462
1.552                  -0.192942       -32.05415
1.556                 -0.1973496       -32.22454
1.56                  -0.2018641       -32.39579
1.564                 -0.2064863       -32.56789
1.568                 -0.2112142       -32.74085
1.572                  -0.216048       -32.91466
1.576                 -0.2209864       -33.08933
1.58                   -0.226027       -33.26484
1.584                 -0.2311714       -33.44123
1.588                 -0.2364152       -33.61846
1.592                 -0.2417597       -33.79656
1.596                 -0.2472016       -33.97553
1.6                   -0.2527418       -34.15538
1.604                  -0.258377       -34.33611
1.608                 -0.2641054       -34.51773
1.612                 -0.2699266       -34.70025
1.616                 -0.2758387       -34.88368
1.62                  -0.2818396       -35.06804
1.624                 -0.2879291       -35.25334
1.628                 -0.2941038       -35.43959
1.632                 -0.3003641       -35.62681
1.636                 -0.3067062       -35.81501
1.64                  -0.3131315       -36.00423
1.644                 -0.3196348       -36.19447
1.648                 -0.3262179       -36.38575
1.652                 -0.3328784        -36.5781
1.656                 -0.3396136       -36.77156
1.66                  -0.3464252       -36.96614
1.664                 -0.3533097       -37.16186
1.668                 -0.3602657       -37.35876
1.672                 -0.3672945       -37.55687
1.676                 -0.3743938       -37.75622
1.68                  -0.3815624       -37.95685
1.684                 -0.3888005       -38.15878
1.688                 -0.3961093       -38.36206
1.692                 -0.4034849       -38.56671
1.696                   -0.41093       -38.77279
1.7                   -0.4184433       -38.98032
1.704                 -0.4260266       -39.18936
1.708                 -0.4336789       -39.39994
1.712                 -0.4414013        -39.6121
1.716                 -0.4491943        -39.8259
1.72                  -0.4570599       -40.04137
1.724                 -0.4649992       -40.25856
1.728                 -0.4730139       -40.47753
1.732                 -0.4811051       -40.69832
1.736                 -0.4892747       -40.92099
1.74                  -0.4975278       -41.14557
1.744                 -0.5058631       -41.37213
1.748                 -0.5142861       -41.60073
1.752                 -0.5227991       -41.83139
1.756                 -0.5314052       -42.06419
1.76                  -0.5401099       -42.29919
1.764                 -0.5489152       -42.53643
1.768                 -0.5578259       -42.77596
1.772                 -0.5668481       -43.01786
1.776                 -0.5759856       -43.26217
1.78                  -0.5852445       -43.50896
1.784                 -0.5946292       -43.75826
1.788                 -0.6041466       -44.01016
1.792                 -0.6138029        -44.2647
1.796                 -0.6236042       -44.52194
1.8                     -0.63356       -44.78195
1.804                 -0.6436731       -45.04476
1.808                  -0.653955       -45.31046
1.812                 -0.6644122       -45.57909
1.816                 -0.6750519        -45.8507
1.82                   -0.685886       -46.12536
1.824                 -0.6969195       -46.40313
1.828                 -0.7081636       -46.68405
1.832                 -0.7196287       -46.96819
1.836                 -0.7313241        -47.2556
1.84                  -0.7432589       -47.54634
1.844                 -0.7554447       -47.84044
1.848                 -0.7678923       -48.13799
1.852                 -0.7806124       -48.43903
1.856                 -0.7936163       -48.74358
1.86                   -0.806918       -49.05174
1.864                 -0.8205278       -49.36353
1.868                 -0.8344565         -49.679
1.872                 -0.8487205       -49.99822
1.876                 -0.8633287       -50.32121
1.88                  -0.8782983       -50.64804
1.884                   -0.89364       -50.97874
1.888                  -0.909369       -51.31336
1.892                  -0.925498       -51.65195
1.896                 -0.9420429       -51.99454
1.9                   -0.9590177       -52.34118
1.904                 -0.9764363        -52.6919
1.908                 -0.9943146       -53.04676
1.912                  -1.012669       -53.40578
1.916                  -1.031513       -53.76901
1.92                   -1.050863       -54.13647
1.924                  -1.070736       -54.50821
1.928                  -1.091147       -54.88425
1.932                  -1.112114       -55.26465
1.936                   -1.13365       -55.64941
1.94                   -1.155777       -56.03858
1.944                  -1.178508       -56.43218
1.948                  -1.201864       -56.83026
1.952                  -1.225859       -57.23283
1.956                  -1.250512       -57.63992
1.96                   -1.275842       -58.05156
1.964                  -1.301864       -58.46777
1.968                  -1.328601       -58.88858
1.972                  -1.356067       -59.31402
1.976                  -1.384283       -59.74411
1.98                   -1.413268       -60.17886
1.984                   -1.44304       -60.61832
1.988                  -1.473618       -61.06247
1.992                  -1.505024       -61.51138
1.996                  -1.537275       -61.96506
2                      -1.570393       -62.42351
2.004                  -1.604396       -62.88676
2.008                  -1.639306       -63.35484
2.012                  -1.675143       -63.82775
2.016                  -1.711928       -64.30553
2.02                   -1.749682        -64.7882
2.024                  -1.788424       -65.27577
2.028                  -1.828179       -65.76828
2.032                  -1.868967       -66.26574
2.036                  -1.910809       -66.76815
2.04                   -1.953729       -67.27557
2.044                  -1.997749         -67.788
2.048                   -2.04289       -68.30545
2.052                  -2.089178       -68.82799
2.056                  -2.136635       -69.35562
2.06                   -2.185283       -69.88836
2.064                   -2.23515       -70.42625
2.068                  -2.286256       -70.96931
2.072                  -2.338629       -71.51757
2.076                  -2.392292       -72.07107
2.08                   -2.447271       -72.62984
2.084                  -2.503593       -73.19393
2.088                  -2.561284       -73.76335
2.092                  -2.620368       -74.33815
2.096                  -2.680876       -74.91839
2.1                    -2.742833       -75.50409
2.104                  -2.806269       -76.09534
2.108                  -2.871213       -76.69215
2.112                  -2.937691        -77.2946
2.116                  -3.005736       -77.90273
2.12                   -3.075379       -78.51661
2.124                  -3.146648        -79.1363
2.128                  -3.219577       -79.76189
2.132                  -3.294198       -80.39344
2.136                  -3.370544       -81.03105
2.14                   -3.448648       -81.67478
2.144                  -3.528548       -82.32474
2.148                  -3.610274       -82.98102
2.152                   -3.69387       -83.64372
2.156                  -3.779367       -84.31296
2.16                   -3.866805       -84.98887
2.164                  -3.956225       -85.67155
2.168                  -4.047666       -86.36117
2.172                  -4.141169       -87.05783
2.176                  -4.236777       -87.76174
2.18                   -4.334533       -88.47301
2.184                  -4.434485       -89.19187
2.188                  -4.536676       -89.91847
2.192                  -4.641155       -90.65304
2.196                  -4.747972       -91.39575
2.2                    -4.857174        -92.1469
2.204                  -4.968819       -92.90669
2.208                  -5.082953       -93.67538
2.212                  -5.199639       -94.45329
2.216                  -5.318928       -95.24069
2.22                   -5.440883       -96.03792
2.224                  -5.565562       -96.84532
2.228                  -5.693028       -97.66327
2.232                  -5.823347       -98.49219
2.236                  -5.956584       -99.33245
2.24                   -6.092807       -100.1846
2.244                  -6.232089        -101.049
2.248                  -6.374502       -101.9263
2.252                   -6.52012        -102.817
2.256                  -6.669023       -103.7218
2.26                   -6.821287       -104.6413
2.264                  -6.976996       -105.5762
2.268                  -7.136235       -106.5273
2.272                  -7.299088       -107.4955
2.276                  -7.465644       -108.4815
2.28                   -7.635995       -109.4864
2.284                  -7.810232       -110.5113
2.288                  -7.988446       -111.5572
2.292                  -8.170735       -112.6254
2.296                  -8.357192       -113.7172
2.3                    -8.547915       -114.8341
2.304                  -8.742997       -115.9775
2.308                  -8.942534       -117.1493
2.312                  -9.146616       -118.3511
2.316                  -9.355333       -119.5852
2.32                    -9.56877       -120.8535
2.324                  -9.787001       -122.1585
2.328                  -10.01009       -123.5027
2.332                   -10.2381        -124.889
2.336                  -10.47107       -126.3203
2.34                   -10.70902          -127.8
2.344                  -10.95194       -129.3317
2.348                  -11.19981       -130.9193
2.352                  -11.45256       -132.5671
2.356                  -11.71007       -134.2795
2.36                   -11.97216       -136.0617
2.364                  -12.23861       -137.9188
2.368                   -12.5091       -139.8567
2.372                  -12.78321       -141.8813
2.376                  -13.06041       -143.9992
2.38                   -13.34005       -146.2172
2.384                  -13.62131       -148.5422
2.388                  -13.90317       -150.9813
2.392                  -14.18443       -153.5417
2.396                  -14.46365       -156.2303
2.4                    -14.73911       -159.0535
2.404                  -15.00885       -162.0169