! TOUCHSTONE file generated by CST MICROWAVE STUDIO
! Date and time: Fri May  6 09:22:49 2022
! Project name: ant1_ceramic_sweep_10porcent.cst
! Parameters = {e=0.035; h=1.6; i=0.8; l1=0.45; l2=17; ls=80; wl=1.7; ws=30}
! Header version: 2018
! Port assignment regex: !\s*Touchstone port\s*([0-9]+)\s*=\s*(CST MWS port|CST DS port)\s*([0-9]+|Zmin|Zmax)\s*\(\"(.*)\"\)(\s*mode\s*([0-9]+))?.*
! Touchstone port assignment:
! Touchstone port 1 = CST MWS port 1 ("")
# GHz S DB R 50
0                  -0.0001190763              -0
0.004              -0.0001330064     -0.05965565
0.008              -0.0001706576      -0.1193033
0.012              -0.0002356622      -0.1789351
0.016              -0.0003249273      -0.2385431
0.02               -0.0004410604      -0.2981194
0.024              -0.0005809792      -0.3576563
0.028              -0.0007462661      -0.4171462
0.032               -0.000935402      -0.4765816
0.036               -0.001147908      -0.5359551
0.04                -0.001384346      -0.5952592
0.044                -0.00164321      -0.6544873
0.048               -0.001923517      -0.7136325
0.052               -0.002225324      -0.7726881
0.056               -0.002547136      -0.8316478
0.06                -0.002889535      -0.8905056
0.064               -0.003250516      -0.9492555
0.068               -0.003628594       -1.007892
0.072               -0.004025395       -1.066411
0.076               -0.004436851       -1.124805
0.08                -0.004863552       -1.183072
0.084               -0.005303505       -1.241207
0.088               -0.005756271       -1.299206
0.092               -0.006221409       -1.357066
0.096                -0.00669641       -1.414783
0.1                 -0.007180834       -1.472355
0.104               -0.007673205       -1.529779
0.108               -0.008172047       -1.587055
0.112               -0.008674325        -1.64418
0.116                -0.00918271       -1.701153
0.12                -0.009694162       -1.757974
0.124                -0.01020616       -1.814642
0.128                -0.01071929       -1.871159
0.132                -0.01123104       -1.927524
0.136                -0.01173937       -1.983739
0.14                 -0.01224488       -2.039806
0.144                -0.01274555       -2.095726
0.148                -0.01323882       -2.151502
0.152                -0.01372527       -2.207137
0.156                -0.01420286       -2.262634
0.16                 -0.01466955       -2.317997
0.164                -0.01512538       -2.373231
0.168                -0.01556933       -2.428338
0.172                -0.01599986       -2.483326
0.176                 -0.0164144       -2.538199
0.18                 -0.01681398       -2.592962
0.184                -0.01719654       -2.647622
0.188                -0.01756155       -2.702185
0.192                -0.01790796       -2.756659
0.196                -0.01823316       -2.811048
0.2                  -0.01853868       -2.865362
0.204                -0.01882398       -2.919609
0.208                -0.01908485       -2.973794
0.212                -0.01932489       -3.027928
0.216                -0.01954042       -3.082019
0.22                 -0.01973294       -3.136074
0.224                 -0.0199003       -3.190103
0.228                -0.02004295       -3.244114
0.232                -0.02015978       -3.298117
0.236                -0.02025123       -3.352122
0.24                 -0.02031616       -3.406137
0.244                -0.02035553       -3.460171
0.248                -0.02036818       -3.514234
0.252                -0.02035557       -3.568337
0.256                -0.02031553       -3.622487
0.26                 -0.02025103       -3.676696
0.264                -0.02015832       -3.730971
0.268                 -0.0200404       -3.785324
0.272                -0.01989713       -3.839762
0.276                -0.01972941       -3.894296
0.28                 -0.01953555       -3.948933
0.284                -0.01931801       -4.003685
0.288                -0.01907662       -4.058559
0.292                -0.01881178       -4.113564
0.296                -0.01852538       -4.168709
0.3                  -0.01821573       -4.224001
0.304                -0.01788631       -4.279449
0.308                -0.01753591        -4.33506
0.312                -0.01716646       -4.390843
0.316                -0.01677883       -4.446804
0.32                 -0.01637287       -4.502949
0.324                -0.01595255       -4.559286
0.328                -0.01551618       -4.615821
0.332                -0.01506514       -4.672559
0.336                -0.01460186       -4.729506
0.34                  -0.0141262       -4.786667
0.344                -0.01364008       -4.844046
0.348                -0.01314488       -4.901649
0.352                -0.01264306        -4.95948
0.356                -0.01213293       -5.017539
0.36                 -0.01161745       -5.075831
0.364                -0.01109802       -5.134359
0.368                -0.01057659       -5.193127
0.372                -0.01005356       -5.252132
0.376               -0.009531391       -5.311379
0.38                -0.009009429       -5.370867
0.384               -0.008490175       -5.430597
0.388               -0.007975568       -5.490569
0.392               -0.007466586       -5.550781
0.396               -0.006964129       -5.611234
0.4                 -0.006470715       -5.671926
0.404               -0.005986798       -5.732855
0.408                -0.00551384       -5.794018
0.412               -0.005052311       -5.855412
0.416               -0.004605248       -5.917035
0.42                -0.004171578       -5.978884
0.424               -0.003754894       -6.040953
0.428               -0.003353079       -6.103238
0.432               -0.002970782       -6.165736
0.436               -0.002608513       -6.228441
0.44                -0.002265228       -6.291347
0.444               -0.001943003        -6.35445
0.448               -0.001642896       -6.417742
0.452               -0.001365455       -6.481216
0.456               -0.001111216       -6.544868
0.46               -0.0008828218        -6.60869
0.464              -0.0006782468       -6.672675
0.468              -0.0005006656       -6.736815
0.472              -0.0003485996       -6.801102
0.476              -0.0002231388       -6.865531
0.48               -0.0001269823       -6.930092
0.484              -5.555374e-05       -6.994777
0.488              -1.361979e-05       -7.059578
0.492               -7.66416e-07       -7.124488
0.496               -1.50447e-05       -7.189497
0.5                -5.867845e-05       -7.254596
0.504               -0.000130677       -7.319781
0.508              -0.0002302526       -7.385037
0.512              -0.0003584804       -7.450361
0.516              -0.0005160934       -7.515743
0.52               -0.0007016441       -7.581175
0.524              -0.0009137412       -7.646649
0.528               -0.001153583       -7.712156
0.532                -0.00142133       -7.777689
0.536               -0.001714054       -7.843239
0.54                -0.002032387         -7.9088
0.544               -0.002377569       -7.974364
0.548                -0.00274559       -8.039923
0.552               -0.003137646       -8.105473
0.556               -0.003552357       -8.171004
0.56                -0.003989849       -8.236512
0.564               -0.004446699       -8.301989
0.568               -0.004923518        -8.36743
0.572               -0.005420479       -8.432832
0.576               -0.005934099       -8.498186
0.58                -0.006465529        -8.56349
0.584               -0.007011785       -8.628739
0.588               -0.007571972       -8.693928
0.592               -0.008146147       -8.759057
0.596               -0.008731332       -8.824121
0.6                 -0.009327115       -8.889116
0.604               -0.009930442       -8.954041
0.608                 -0.0105424       -9.018895
0.612                -0.01116101       -9.083677
0.616                -0.01178423       -9.148385
0.62                 -0.01240999        -9.21302
0.624                -0.01303837        -9.27758
0.628                -0.01366617        -9.34207
0.632                -0.01429398       -9.406488
0.636                -0.01491809       -9.470837
0.64                 -0.01553903       -9.535118
0.644                -0.01615459       -9.599337
0.648                -0.01676321       -9.663494
0.652                -0.01736328       -9.727592
0.656                -0.01795404        -9.79164
0.66                  -0.0185329       -9.855639
0.664                -0.01910074       -9.919594
0.668                -0.01965372       -9.983513
0.672                -0.02019276        -10.0474
0.676                -0.02071452       -10.11126
0.68                 -0.02121938       -10.17511
0.684                -0.02170545       -10.23895
0.688                -0.02217155       -10.30278
0.692                -0.02261793       -10.36662
0.696                -0.02304223       -10.43048
0.7                  -0.02344262       -10.49435
0.704                -0.02381979       -10.55827
0.708                -0.02417351       -10.62222
0.712                 -0.0245013       -10.68623
0.716                -0.02480286        -10.7503
0.72                 -0.02507936       -10.81445
0.724                -0.02532682       -10.87868
0.728                -0.02554747         -10.943
0.732                -0.02574081       -11.00744
0.736                -0.02590453       -11.07198
0.74                 -0.02604016       -11.13666
0.744                -0.02614627       -11.20148
0.748                -0.02622402       -11.26645
0.752                -0.02627341       -11.33159
0.756                -0.02629351        -11.3969
0.76                  -0.0262849        -11.4624
0.764                -0.02624765        -11.5281
0.768                -0.02618175       -11.59401
0.772                -0.02608837       -11.66015
0.776                -0.02596753       -11.72652
0.78                 -0.02581972       -11.79313
0.784                -0.02564498          -11.86
0.788                -0.02544509       -11.92714
0.792                -0.02522031       -11.99456
0.796                -0.02497243       -12.06227
0.8                  -0.02470045       -12.13028
0.804                -0.02440588        -12.1986
0.808                -0.02409142       -12.26724
0.812                -0.02375609       -12.33621
0.816                -0.02340146       -12.40553
0.82                 -0.02302968       -12.47519
0.824                -0.02264236        -12.5452
0.828                -0.02223913       -12.61558
0.832                -0.02182263       -12.68634
0.836                -0.02139344       -12.75747
0.84                 -0.02095434       -12.82899
0.844                -0.02050538       -12.90091
0.848                 -0.0200493       -12.97322
0.852                 -0.0195863       -13.04594
0.856                -0.01911955       -13.11907
0.86                 -0.01864987       -13.19261
0.864                -0.01817942       -13.26657
0.868                -0.01771001       -13.34095
0.872                -0.01724183       -13.41575
0.876                -0.01677827       -13.49098
0.88                 -0.01632063       -13.56664
0.884                -0.01587018       -13.64273
0.888                -0.01542884       -13.71925
0.892                -0.01499891        -13.7962
0.896                -0.01458081       -13.87358
0.9                  -0.01417791       -13.95139
0.904                -0.01379014       -14.02962
0.908                -0.01342101       -14.10829
0.912                -0.01307091       -14.18737
0.916                -0.01274033       -14.26688
0.92                 -0.01243374        -14.3468
0.924                -0.01215024       -14.42714
0.928                -0.01189167       -14.50789
0.932                -0.01166042       -14.58903
0.936                -0.01145727       -14.67058
0.94                 -0.01128445       -14.75253
0.944                -0.01114208       -14.83485
0.948                -0.01103067       -14.91756
0.952                -0.01095346       -15.00065
0.956                -0.01090946        -15.0841
0.96                 -0.01090211       -15.16791
0.964                -0.01092987       -15.25207
0.968                -0.01099505       -15.33657
0.972                -0.01109885       -15.42141
0.976                -0.01124001       -15.50657
0.98                  -0.0114206       -15.59206
0.984                -0.01164068       -15.67785
0.988                -0.01190175       -15.76394
0.992                -0.01220268       -15.85032
0.996                 -0.0125447       -15.93698
1                    -0.01292813       -16.02392
1.004                -0.01335214       -16.11112
1.008                -0.01381736       -16.19856
1.012                -0.01432406       -16.28626
1.016                -0.01487251       -16.37419
1.02                 -0.01546116       -16.46234
1.024                 -0.0160903       -16.55071
1.028                -0.01675904       -16.63929
1.032                -0.01746884       -16.72805
1.036                -0.01821637       -16.81701
1.04                 -0.01900204       -16.90618
1.044                -0.01982578       -16.99549
1.048                -0.02068798         -17.085
1.052                -0.02158395       -17.17464
1.056                -0.02251494       -17.26444
1.06                 -0.02348051       -17.35438
1.064                 -0.0244783       -17.44443
1.068                -0.02550928       -17.53464
1.072                -0.02656854       -17.62497
1.076                -0.02765805       -17.71543
1.08                 -0.02877374       -17.80599
1.084                -0.02991632        -17.8967
1.088                -0.03108344       -17.98749
1.092                -0.03227351       -18.07838
1.096                -0.03348458       -18.16939
1.1                  -0.03471618        -18.2605
1.104                -0.03596487        -18.3517
1.108                -0.03723028         -18.443
1.112                -0.03851071       -18.53442
1.116                -0.03980264       -18.62591
1.12                 -0.04110725       -18.71752
1.124                -0.04241922       -18.80924
1.128                -0.04374093       -18.90107
1.132                -0.04506567         -18.993
1.136                -0.04639451       -19.08505
1.14                 -0.04772654       -19.17722
1.144                -0.04905715       -19.26951
1.148                -0.05038682       -19.36194
1.152                -0.05171287       -19.45451
1.156                -0.05303251       -19.54722
1.16                 -0.05434615       -19.64009
1.164                -0.05565046       -19.73312
1.168                -0.05694387       -19.82633
1.172                  -0.058226       -19.91972
1.176                -0.05949416        -20.0133
1.18                  -0.0607476       -20.10709
1.184                 -0.0619833       -20.20111
1.188                -0.06320163       -20.29535
1.192                -0.06440074       -20.38984
1.196                -0.06557876       -20.48459
1.2                  -0.06673474       -20.57962
1.204                -0.06786863       -20.67493
1.208                -0.06897795       -20.77055
1.212                -0.07006259       -20.86649
1.216                -0.07112166       -20.96277
1.22                 -0.07215377       -21.05941
1.224                -0.07315918       -21.15641
1.228                -0.07413761       -21.25381
1.232                -0.07508715       -21.35162
1.236                -0.07600961       -21.44986
1.24                 -0.07690207       -21.54854
1.244                -0.07776611       -21.64769
1.248                -0.07860148       -21.74732
1.252                -0.07940875       -21.84746
1.256                -0.08018742       -21.94812
1.26                   -0.080939       -22.04933
1.264                -0.08166129       -22.15109
1.268                -0.08235807       -22.25344
1.272                -0.08302779       -22.35639
1.276                -0.08367398       -22.45997
1.28                 -0.08429387       -22.56418
1.284                -0.08489125       -22.66906
1.288                -0.08546601       -22.77461
1.292                -0.08602004       -22.88087
1.296                -0.08655512       -22.98784
1.3                  -0.08707223       -23.09555
1.304                -0.08757254       -23.20402
1.308                -0.08805792       -23.31326
1.312                -0.08853182       -23.42329
1.316                -0.08899368       -23.53413
1.32                 -0.08944784       -23.64579
1.324                -0.08989418        -23.7583
1.328                -0.09033674       -23.87166
1.332                -0.09077696        -23.9859
1.336                -0.09121684       -24.10102
1.34                 -0.09166048       -24.21705
1.344                -0.09210933       -24.33399
1.348                -0.09256483       -24.45186
1.352                -0.09303135       -24.57067
1.356                -0.09351123       -24.69043
1.36                 -0.09400701       -24.81116
1.364                -0.09452178       -24.93286
1.368                -0.09505711       -25.05554
1.372                -0.09561735       -25.17923
1.376                -0.09620601       -25.30391
1.38                   -0.096824        -25.4296
1.384                 -0.0974763       -25.55631
1.388                -0.09816462       -25.68404
1.392                -0.09889239        -25.8128
1.396                -0.09966292       -25.94259
1.4                   -0.1004783       -26.07342
1.404                 -0.1013416       -26.20529
1.408                 -0.1022571        -26.3382
1.412                 -0.1032257       -26.47216
1.416                 -0.1042531       -26.60716
1.42                  -0.1053408       -26.74322
1.424                 -0.1064898       -26.88031
1.428                 -0.1077052       -27.01846
1.432                 -0.1089895       -27.15765
1.436                 -0.1103452       -27.29788
1.44                  -0.1117736       -27.43915
1.444                 -0.1132802       -27.58146
1.448                 -0.1148642        -27.7248
1.452                 -0.1165306       -27.86917
1.456                 -0.1182798       -28.01457
1.46                  -0.1201171       -28.16098
1.464                 -0.1220401       -28.30841
1.468                 -0.1240537       -28.45684
1.472                 -0.1261611       -28.60628
1.476                 -0.1283608       -28.75672
1.48                  -0.1306573       -28.90814
1.484                 -0.1330522       -29.06054
1.488                 -0.1355455       -29.21391
1.492                 -0.1381394       -29.36824
1.496                 -0.1408361       -29.52354
1.5                   -0.1436356       -29.67979
1.504                 -0.1465385       -29.83698
1.508                 -0.1495486        -29.9951
1.512                 -0.1526636       -30.15415
1.516                 -0.1558867       -30.31412
1.52                  -0.1592165         -30.475
1.524                 -0.1626558       -30.63679
1.528                 -0.1662025       -30.79948
1.532                 -0.1698587       -30.96305
1.536                 -0.1736232       -31.12751
1.54                  -0.1774983       -31.29285
1.544                 -0.1814815       -31.45906
1.548                 -0.1855743       -31.62613
1.552                 -0.1897755       -31.79407
1.556                 -0.1940839       -31.96287
1.56                   -0.198501       -32.13253
1.564                 -0.2030249       -32.30303
1.568                 -0.2076545       -32.47439
1.572                 -0.2123909        -32.6466
1.576                 -0.2172307       -32.81966
1.58                  -0.2221755       -32.99356
1.584                 -0.2272218       -33.16832
1.588                 -0.2323694       -33.34393
1.592                 -0.2376183       -33.52039
1.596                 -0.2429661       -33.69772
1.6                   -0.2484108       -33.87592
1.604                 -0.2539516       -34.05498
1.608                 -0.2595883       -34.23492
1.612                 -0.2653178       -34.41576
1.616                 -0.2711393       -34.59749
1.62                  -0.2770511       -34.78013
1.624                 -0.2830514       -34.96369
1.628                 -0.2891388       -35.14819
1.632                 -0.2953127       -35.33364
1.636                 -0.3015697       -35.52005
1.64                  -0.3079105       -35.70745
1.644                 -0.3143318       -35.89585
1.648                 -0.3208337       -36.08528
1.652                  -0.327412       -36.27575
1.656                 -0.3340695       -36.46729
1.66                  -0.3408023       -36.65992
1.664                 -0.3476087       -36.85367
1.668                 -0.3544893       -37.04857
1.672                  -0.361442       -37.24464
1.676                 -0.3684656       -37.44191
1.68                  -0.3755606       -37.64042
1.684                 -0.3827259        -37.8402
1.688                 -0.3899615       -38.04129
1.692                 -0.3972647       -38.24371
1.696                 -0.4046375       -38.44751
1.7                   -0.4120797       -38.65273
1.704                 -0.4195903        -38.8594
1.708                 -0.4271697       -39.06756
1.712                 -0.4348196       -39.27726
1.716                   -0.44254       -39.48854
1.72                   -0.450332       -39.70144
1.724                 -0.4581963       -39.91602
1.728                 -0.4661346       -40.13231
1.732                 -0.4741482       -40.35036
1.736                 -0.4822399       -40.57024
1.74                  -0.4904102       -40.79196
1.744                  -0.498663       -41.01561
1.748                 -0.5070004       -41.24122
1.752                 -0.5154252       -41.46884
1.756                 -0.5239402       -41.69854
1.76                  -0.5325495       -41.93035
1.764                 -0.5412575       -42.16435
1.768                 -0.5500662       -42.40058
1.772                 -0.5589824        -42.6391
1.776                 -0.5680097       -42.87996
1.78                  -0.5771523       -43.12322
1.784                 -0.5864172       -43.36893
1.788                 -0.5958078       -43.61716
1.792                 -0.6053329       -43.86796
1.796                 -0.6149959       -44.12138
1.8                   -0.6248053       -44.37749
1.804                 -0.6347668       -44.63634
1.808                 -0.6448898       -44.89798
1.812                 -0.6551797       -45.16249
1.816                 -0.6656453        -45.4299
1.82                  -0.6762941       -45.70029
1.824                 -0.6871347       -45.97368
1.828                 -0.6981787       -46.25018
1.832                 -0.7094316        -46.5298
1.836                 -0.7209053       -46.81262
1.84                  -0.7326083       -47.09868
1.844                 -0.7445511       -47.38804
1.848                 -0.7567444       -47.68075
1.852                  -0.769199       -47.97687
1.856                 -0.7819257       -48.27644
1.86                  -0.7949373       -48.57953
1.864                 -0.8082442       -48.88618
1.868                 -0.8218567       -49.19643
1.872                 -0.8357908       -49.51034
1.876                 -0.8500564       -49.82796
1.88                  -0.8646685       -50.14933
1.884                 -0.8796373        -50.4745
1.888                 -0.8949784       -50.80352
1.892                 -0.9107053       -51.13642
1.896                 -0.9268313       -51.47324
1.9                   -0.9433707       -51.81406
1.904                 -0.9603378       -52.15887
1.908                 -0.9777488       -52.50774
1.912                 -0.9956169       -52.86071
1.916                  -1.013958       -53.21781
1.92                   -1.032787       -53.57907
1.924                  -1.052121       -53.94455
1.928                  -1.071974       -54.31426
1.932                  -1.092362       -54.68824
1.936                  -1.113303       -55.06652
1.94                   -1.134813       -55.44915
1.944                  -1.156909       -55.83615
1.948                  -1.179607       -56.22753
1.952                  -1.202923       -56.62334
1.956                  -1.226879       -57.02362
1.96                   -1.251489       -57.42837
1.964                  -1.276769       -57.83763
1.968                  -1.302741       -58.25142
1.972                  -1.329422       -58.66977
1.976                   -1.35683       -59.09271
1.98                   -1.384983       -59.52026
1.984                  -1.413899       -59.95243
1.988                    -1.4436       -60.38926
1.992                  -1.474102       -60.83076
1.996                  -1.505426       -61.27695
2                      -1.537592       -61.72787
2.004                  -1.570617        -62.1835
2.008                  -1.604525       -62.64391
2.012                  -1.639335        -63.1091
2.016                  -1.675065       -63.57907
2.02                   -1.711737       -64.05388
2.024                  -1.749371       -64.53351
2.028                  -1.787991         -65.018
2.032                  -1.827616       -65.50737
2.036                  -1.868268       -66.00166
2.04                   -1.909969       -66.50083
2.044                  -1.952742       -67.00498
2.048                  -1.996606       -67.51408
2.052                  -2.041586       -68.02816
2.056                  -2.087705       -68.54727
2.06                   -2.134986       -69.07139
2.064                  -2.183454       -69.60059
2.068                  -2.233129       -70.13489
2.072                  -2.284041        -70.6743
2.076                  -2.336208       -71.21884
2.08                   -2.389659       -71.76858
2.084                  -2.444418       -72.32352
2.088                  -2.500513        -72.8837
2.092                  -2.557967       -73.44917
2.096                  -2.616809       -74.01997
2.1                    -2.677063       -74.59611
2.104                  -2.738761       -75.17769
2.108                  -2.801926        -75.7647
2.112                   -2.86659       -76.35723
2.116                  -2.932782       -76.95531
2.12                    -3.00053       -77.55899
2.124                  -3.069866       -78.16838
2.128                   -3.14082       -78.78348
2.132                  -3.213424        -79.4044
2.136                  -3.287709       -80.03119
2.14                   -3.363709       -80.66396
2.144                  -3.441459       -81.30276
2.148                  -3.520992       -81.94769
2.152                  -3.602343       -82.59885
2.156                   -3.68555       -83.25633
2.16                   -3.770649       -83.92025
2.164                  -3.857678       -84.59073
2.168                  -3.946678       -85.26787
2.172                  -4.037687       -85.95182
2.176                  -4.130746       -86.64273
2.18                   -4.225899       -87.34074
2.184                  -4.323189       -88.04598
2.188                  -4.422662       -88.75869
2.192                  -4.524361       -89.47898
2.196                  -4.628337        -90.2071
2.2                    -4.734638       -90.94323
2.204                  -4.843313       -91.68759
2.208                  -4.954414       -92.44045
2.212                  -5.067996       -93.20204
2.216                  -5.184113       -93.97265
2.22                   -5.302824       -94.75255
2.224                  -5.424185       -95.54208
2.228                  -5.548258       -96.34158
2.232                  -5.675106       -97.15138
2.236                  -5.804792       -97.97189
2.24                   -5.937384       -98.80353
2.244                  -6.072949       -99.64673
2.248                  -6.211562        -100.502
2.252                  -6.353292       -101.3698
2.256                  -6.498216       -102.2507
2.26                   -6.646412       -103.1454
2.264                   -6.79796       -104.0544
2.268                  -6.952943       -104.9784
2.272                  -7.111444       -105.9183
2.276                  -7.273553       -106.8747
2.28                   -7.439359       -107.8486
2.284                  -7.608952       -108.8409
2.288                  -7.782426       -109.8527
2.292                  -7.959879       -110.8849
2.296                  -8.141405       -111.9389
2.3                    -8.327103       -113.0158
2.304                  -8.517074       -114.1171
2.308                  -8.711413       -115.2443
2.312                  -8.910222       -116.3991
2.316                  -9.113597       -117.5832
2.32                   -9.321632       -118.7985
2.324                  -9.534421       -120.0473
2.328                  -9.752044       -121.3317
2.332                  -9.974583       -122.6544
2.336                   -10.2021       -124.0179
2.34                   -10.43465       -125.4254
2.344                  -10.67228         -126.88
2.348                  -10.91499       -128.3853
2.352                  -11.16278        -129.945
2.356                  -11.41559       -131.5634
2.36                   -11.67335        -133.245
2.364                  -11.93591       -134.9946
2.368                  -12.20307       -136.8176
2.372                  -12.47457       -138.7197
2.376                  -12.75003       -140.7068
2.38                   -13.02898       -142.7856
2.384                  -13.31082       -144.9627
2.388                   -13.5948       -147.2454
2.392                  -13.87998       -149.6411
2.396                  -14.16523        -152.157
2.4                    -14.44919       -154.8006
2.404                  -14.73023       -157.5787