! TOUCHSTONE file generated by CST MICROWAVE STUDIO
! Date and time: Fri May  6 09:22:51 2022
! Project name: ant1_ceramic_sweep_10porcent.cst
! Parameters = {e=0.035; h=1.6; i=0.8; l1=0.5; l2=15.3; ls=80; wl=1.7; ws=30}
! Header version: 2018
! Port assignment regex: !\s*Touchstone port\s*([0-9]+)\s*=\s*(CST MWS port|CST DS port)\s*([0-9]+|Zmin|Zmax)\s*\(\"(.*)\"\)(\s*mode\s*([0-9]+))?.*
! Touchstone port assignment:
! Touchstone port 1 = CST MWS port 1 ("")
# GHz S DB R 50
0                   -0.002703951              -0
0.004               -0.002703751     -0.05377688
0.008               -0.002703148      -0.1075543
0.012               -0.002701108      -0.1613326
0.016               -0.002699184      -0.2151125
0.02                -0.002695819      -0.2688943
0.024                -0.00269205      -0.3226786
0.028               -0.002687875      -0.3764659
0.032               -0.002683809      -0.4302567
0.036               -0.002678297      -0.4840515
0.04                -0.002671336      -0.5378509
0.044               -0.002664996      -0.5916554
0.048               -0.002656683      -0.6454654
0.052               -0.002647948      -0.6992817
0.056               -0.002639305      -0.7531047
0.06                -0.002628161      -0.8069349
0.064               -0.002617619      -0.8607731
0.068               -0.002606119      -0.9146196
0.072               -0.002593658      -0.9684754
0.076               -0.002580747       -1.022341
0.08                -0.002565827       -1.076217
0.084               -0.002550963       -1.130103
0.088               -0.002535113       -1.184001
0.092               -0.002517751       -1.237912
0.096               -0.002500425       -1.291836
0.1                 -0.002481053       -1.345773
0.104                 -0.0024617       -1.399725
0.108               -0.002440285       -1.453691
0.112               -0.002418869       -1.507674
0.116               -0.002395891       -1.561673
0.12                -0.002371339        -1.61569
0.124               -0.002346755       -1.669725
0.128               -0.002320576       -1.723778
0.132               -0.002294342       -1.777852
0.136               -0.002265969       -1.831946
0.14                -0.002236483       -1.886061
0.144               -0.002205867       -1.940199
0.148               -0.002174108        -1.99436
0.152                -0.00214171       -2.048545
0.156               -0.002108137       -2.102755
0.16                -0.002073377       -2.156991
0.164               -0.002037931       -2.211254
0.168               -0.002001263       -2.265544
0.172               -0.001963356       -2.319862
0.176               -0.001924191        -2.37421
0.18                -0.001884272       -2.428588
0.184               -0.001843572       -2.482998
0.188               -0.001801561        -2.53744
0.192               -0.001758731       -2.591915
0.196               -0.001714549       -2.646424
0.2                 -0.001670025       -2.700968
0.204                -0.00162462       -2.755548
0.208               -0.001578834       -2.810165
0.212               -0.001532635        -2.86482
0.216               -0.001484455       -2.919513
0.22                 -0.00143582       -2.974246
0.224               -0.001387225        -3.02902
0.228               -0.001339165       -3.083835
0.232               -0.001289536       -3.138692
0.236               -0.001239873       -3.193593
0.24                -0.001189114       -3.248537
0.244               -0.001138265       -3.303527
0.248               -0.001088857       -3.358562
0.252               -0.001037751       -3.413644
0.256              -0.0009875151       -3.468774
0.26               -0.0009365624       -3.523951
0.264              -0.0008864262       -3.579177
0.268              -0.0008370726       -3.634453
0.272              -0.0007874379       -3.689779
0.276              -0.0007390476       -3.745156
0.28               -0.0006898041       -3.800585
0.284              -0.0006422718       -3.856066
0.288               -0.000595377         -3.9116
0.292              -0.0005501379       -3.967187
0.296              -0.0005054798       -4.022828
0.3                -0.0004613786       -4.078524
0.304              -0.0004198757       -4.134276
0.308              -0.0003783646       -4.190082
0.312              -0.0003393834       -4.245945
0.316              -0.0003008512       -4.301863
0.32               -0.0002648081       -4.357839
0.324              -0.0002301915        -4.41387
0.328              -0.0001985245        -4.46996
0.332              -0.0001682278       -4.526107
0.336              -0.0001387442       -4.582312
0.34               -0.0001131752       -4.638575
0.344              -8.993103e-05       -4.694895
0.348              -6.897497e-05       -4.751275
0.352              -5.134481e-05       -4.807712
0.356              -3.595569e-05       -4.864208
0.36               -2.226535e-05       -4.920762
0.364              -1.181714e-05       -4.977375
0.368              -6.126472e-06       -5.034046
0.372              -1.046909e-06       -5.090775
0.376              -6.663457e-07       -5.147563
0.38               -2.409118e-06       -5.204408
0.384              -8.821478e-06       -5.261311
0.388              -1.832449e-05       -5.318273
0.392              -3.091003e-05       -5.375292
0.396              -4.707995e-05       -5.432367
0.4                -6.680245e-05         -5.4895
0.404               -9.00579e-05       -5.546689
0.408              -0.0001173484       -5.603935
0.412              -0.0001486485       -5.661238
0.416              -0.0001823933       -5.718596
0.42               -0.0002222027       -5.776009
0.424              -0.0002633701       -5.833477
0.428              -0.0003100501          -5.891
0.432              -0.0003596166       -5.948578
0.436              -0.0004136234       -6.006208
0.44               -0.0004715313       -6.063893
0.444              -0.0005338378       -6.121631
0.448              -0.0005984598        -6.17942
0.452              -0.0006679681       -6.237263
0.456              -0.0007407948       -6.295157
0.46               -0.0008169379       -6.353102
0.464               -0.000897918       -6.411099
0.468              -0.0009821681       -6.469147
0.472               -0.001070209       -6.527245
0.476               -0.001160974       -6.585393
0.48                -0.001255999       -6.643591
0.484               -0.001351669       -6.701836
0.488                -0.00145364       -6.760132
0.492               -0.001558285       -6.818477
0.496               -0.001664543       -6.876869
0.5                  -0.00177498       -6.935311
0.504               -0.001888055         -6.9938
0.508               -0.002003706       -7.052338
0.512               -0.002120924       -7.110922
0.516               -0.002241204       -7.169556
0.52                -0.002364548       -7.228237
0.524               -0.002488889       -7.286964
0.528               -0.002615672       -7.345743
0.532               -0.002743929       -7.404567
0.536               -0.002873589        -7.46344
0.54                 -0.00300516       -7.522361
0.544                -0.00313809       -7.581332
0.548               -0.003270781       -7.640351
0.552               -0.003405317        -7.69942
0.556               -0.003540578       -7.758539
0.56                -0.003675001       -7.817709
0.564               -0.003810652       -7.876928
0.568               -0.003946391       -7.936202
0.572               -0.004081168       -7.995527
0.576               -0.004216039       -8.054904
0.58                -0.004350376       -8.114336
0.584               -0.004484136       -8.173824
0.588               -0.004616265       -8.233366
0.592                -0.00474771       -8.292967
0.596               -0.004876884       -8.352626
0.6                   -0.0050053       -8.412344
0.604               -0.005131828       -8.472124
0.608               -0.005255927       -8.531965
0.612               -0.005377528        -8.59187
0.616               -0.005496526        -8.65184
0.62                -0.005613419       -8.711877
0.624               -0.005727075       -8.771983
0.628               -0.005837931       -8.832159
0.632               -0.005944912       -8.892405
0.636               -0.006048887       -8.952728
0.64                -0.006149367       -9.013125
0.644               -0.006245685         -9.0736
0.648               -0.006338251       -9.134155
0.652                -0.00642754       -9.194793
0.656               -0.006511342       -9.255515
0.66                 -0.00659117       -9.316322
0.664               -0.006666879       -9.377219
0.668               -0.006737808       -9.438209
0.672                -0.00680291        -9.49929
0.676               -0.006864101       -9.560468
0.68                -0.006920713       -9.621746
0.684               -0.006971656       -9.683124
0.688               -0.007018324       -9.744607
0.692               -0.007059046       -9.806197
0.696                -0.00709528       -9.867896
0.7                 -0.007126327       -9.929708
0.704               -0.007151623       -9.991634
0.708               -0.007170975       -10.05368
0.712                -0.00718632       -10.11584
0.716                -0.00719651       -10.17813
0.72                -0.007200881       -10.24055
0.724               -0.007200298       -10.30309
0.728               -0.007194164       -10.36577
0.732                -0.00718431       -10.42859
0.736               -0.007168654       -10.49153
0.74                -0.007148466       -10.55463
0.744               -0.007122633       -10.61786
0.748               -0.007092537       -10.68125
0.752               -0.007059074       -10.74478
0.756               -0.007019987       -10.80847
0.76                -0.006977234       -10.87231
0.764               -0.006930588       -10.93631
0.768               -0.006880527       -11.00048
0.772               -0.006826286        -11.0648
0.776               -0.006768215        -11.1293
0.78                -0.006709301       -11.19396
0.784               -0.006646258        -11.2588
0.788               -0.006580545       -11.32381
0.792               -0.006511843         -11.389
0.796               -0.006442218       -11.45437
0.8                 -0.006369924       -11.51992
0.804               -0.006296286       -11.58566
0.808               -0.006222246       -11.65158
0.812                -0.00614768        -11.7177
0.816                -0.00607129         -11.784
0.82                -0.005995081        -11.8505
0.824               -0.005919885        -11.9172
0.828                -0.00584509       -11.98409
0.832                -0.00577099       -12.05119
0.836               -0.005698518       -12.11848
0.84                -0.005627484       -12.18598
0.844               -0.005558312       -12.25369
0.848               -0.005493423        -12.3216
0.852                -0.00542905       -12.38972
0.856               -0.005369747       -12.45805
0.86                -0.005313265       -12.52658
0.864               -0.005261005       -12.59533
0.868               -0.005213975        -12.6643
0.872               -0.005170429       -12.73347
0.876               -0.005133816       -12.80286
0.88                 -0.00510149       -12.87246
0.884               -0.005076925       -12.94228
0.888               -0.005058517       -13.01232
0.892               -0.005046561       -13.08257
0.896               -0.005042597       -13.15304
0.9                 -0.005045999       -13.22373
0.904               -0.005057122       -13.29463
0.908               -0.005076998       -13.36575
0.912                -0.00510699       -13.43709
0.916               -0.005145461       -13.50865
0.92                -0.005193447       -13.58042
0.924               -0.005251269       -13.65241
0.928               -0.005320498       -13.72461
0.932               -0.005398996       -13.79702
0.936               -0.005489693       -13.86966
0.94                -0.005591519        -13.9425
0.944               -0.005704478       -14.01556
0.948               -0.005829484       -14.08883
0.952               -0.005966478       -14.16232
0.956               -0.006116469       -14.23601
0.96                -0.006279369       -14.30991
0.964               -0.006454149       -14.38402
0.968               -0.006642694       -14.45833
0.972               -0.006843608       -14.53285
0.976               -0.007058743       -14.60758
0.98                -0.007288112       -14.68251
0.984                -0.00753029       -14.75764
0.988               -0.007786532       -14.83297
0.992               -0.008056985       -14.90849
0.996               -0.008340899       -14.98422
1                   -0.008640062       -15.06014
1.004               -0.008952157       -15.13626
1.008                -0.00927984       -15.21256
1.012               -0.009620429       -15.28907
1.016               -0.009975587       -15.36575
1.02                 -0.01034399       -15.44263
1.024                -0.01072752        -15.5197
1.028                -0.01112465       -15.59695
1.032                -0.01153595       -15.67437
1.036                -0.01195979       -15.75202
1.04                 -0.01239821        -15.8298
1.044                 -0.0128503        -15.9078
1.048                -0.01331521       -15.98596
1.052                -0.01379328       -16.06429
1.056                -0.01428438       -16.14281
1.06                 -0.01478728       -16.22153
1.064                -0.01530313       -16.30043
1.068                -0.01583082       -16.37947
1.072                 -0.0163703       -16.45867
1.076                -0.01692067       -16.53809
1.08                 -0.01748217       -16.61765
1.084                -0.01805476       -16.69743
1.088                -0.01863792       -16.77734
1.092                -0.01923108       -16.85744
1.096                -0.01983343       -16.93771
1.1                  -0.02044399       -17.01817
1.104                -0.02106458       -17.09879
1.108                -0.02169367       -17.17961
1.112                -0.02233003       -17.26059
1.116                -0.02297333       -17.34173
1.12                 -0.02362288       -17.42306
1.124                -0.02428021       -17.50459
1.128                -0.02494395       -17.58629
1.132                  -0.025612       -17.66818
1.136                -0.02628592       -17.75025
1.14                 -0.02696352       -17.83252
1.144                -0.02764528       -17.91497
1.148                   -0.02833       -17.99761
1.152                -0.02901848       -18.08045
1.156                -0.02970861       -18.16349
1.16                 -0.03040159       -18.24673
1.164                -0.03109466       -18.33018
1.168                -0.03179064       -18.41383
1.172                -0.03248547        -18.4977
1.176                -0.03318097       -18.58179
1.18                 -0.03387585       -18.66609
1.184                -0.03457004       -18.75062
1.188                -0.03526175       -18.83538
1.192                -0.03595313       -18.92037
1.196                -0.03664032        -19.0056
1.2                  -0.03732684       -19.09107
1.204                -0.03800916        -19.1768
1.208                -0.03868849       -19.26278
1.212                -0.03936228       -19.34902
1.216                 -0.0400336       -19.43553
1.22                 -0.04070006       -19.52231
1.224                -0.04136145       -19.60937
1.228                -0.04201738       -19.69671
1.232                 -0.0426679       -19.78434
1.236                -0.04331384       -19.87228
1.24                 -0.04395333       -19.96052
1.244                -0.04458604       -20.04907
1.248                 -0.0452141       -20.13795
1.252                -0.04583538       -20.22715
1.256                -0.04644936       -20.31668
1.26                   -0.047058       -20.40656
1.264                -0.04765894       -20.49678
1.268                -0.04825468       -20.58737
1.272                -0.04884283       -20.67832
1.276                -0.04942571       -20.76964
1.28                 -0.05000217       -20.86135
1.284                -0.05057186       -20.95345
1.288                -0.05113674       -21.04594
1.292                 -0.0516949       -21.13885
1.296                -0.05224788       -21.23216
1.3                  -0.05279531       -21.32591
1.304                -0.05333879       -21.42008
1.308                -0.05387726        -21.5147
1.312                -0.05441106       -21.60975
1.316                -0.05494199       -21.70528
1.32                 -0.05546845       -21.80126
1.324                -0.05599424       -21.89773
1.328                -0.05651697       -21.99467
1.332                -0.05703811        -22.0921
1.336                -0.05755814       -22.19004
1.34                 -0.05807706       -22.28848
1.344                -0.05859783       -22.38744
1.348                -0.05911901       -22.48692
1.352                -0.05964246       -22.58694
1.356                -0.06016835       -22.68749
1.36                 -0.06069709        -22.7886
1.364                -0.06123085       -22.89026
1.368                -0.06177022       -22.99248
1.372                 -0.0623157       -23.09527
1.376                -0.06286846       -23.19865
1.38                 -0.06342849       -23.30261
1.384                -0.06399798       -23.40716
1.388                -0.06457827       -23.51231
1.392                -0.06516981       -23.61806
1.396                -0.06577353       -23.72443
1.4                  -0.06639053       -23.83142
1.404                -0.06702239       -23.93904
1.408                -0.06766955       -24.04728
1.412                 -0.0683347       -24.15617
1.416                -0.06901704       -24.26569
1.42                 -0.06971914       -24.37587
1.424                -0.07044182       -24.48669
1.428                -0.07118668       -24.59818
1.432                -0.07195368       -24.71033
1.436                -0.07274562       -24.82314
1.44                 -0.07356304       -24.93663
1.444                -0.07440713        -25.0508
1.448                -0.07528093       -25.16565
1.452                -0.07618324       -25.28118
1.456                -0.07711486       -25.39739
1.46                  -0.0780801        -25.5143
1.464                -0.07907881        -25.6319
1.468                -0.08011165       -25.75019
1.472                -0.08117952       -25.86919
1.476                -0.08228656       -25.98888
1.48                 -0.08343038       -26.10928
1.484                -0.08461362       -26.23038
1.488                -0.08583855       -26.35219
1.492                  -0.087105       -26.47471
1.496                -0.08841498       -26.59794
1.5                   -0.0897702       -26.72188
1.504                -0.09116928       -26.84653
1.508                -0.09261647       -26.97189
1.512                 -0.0941103       -27.09796
1.516                 -0.0956549       -27.22476
1.52                 -0.09724751       -27.35225
1.524                -0.09889177       -27.48047
1.528                 -0.1005895       -27.60941
1.532                 -0.1023388       -27.73905
1.536                 -0.1041425       -27.86941
1.54                  -0.1060014       -28.00048
1.544                 -0.1079164       -28.13227
1.548                 -0.1098863       -28.26477
1.552                 -0.1119161       -28.39798
1.556                 -0.1140024        -28.5319
1.56                  -0.1161479       -28.66653
1.564                 -0.1183528       -28.80188
1.568                 -0.1206194       -28.93794
1.572                 -0.1229463        -29.0747
1.576                 -0.1253345       -29.21218
1.58                  -0.1277846       -29.35036
1.584                 -0.1302968       -29.48925
1.588                 -0.1328728       -29.62885
1.592                 -0.1355127       -29.76916
1.596                 -0.1382151       -29.91018
1.6                   -0.1409827       -30.05191
1.604                 -0.1438132       -30.19434
1.608                 -0.1467096       -30.33748
1.612                 -0.1496701       -30.48132
1.616                 -0.1526968       -30.62589
1.62                  -0.1557879       -30.77115
1.624                 -0.1589435       -30.91714
1.628                 -0.1621645       -31.06383
1.632                 -0.1654513       -31.21124
1.636                 -0.1688034       -31.35937
1.64                  -0.1722206       -31.50822
1.644                 -0.1757012       -31.65778
1.648                 -0.1792486       -31.80807
1.652                 -0.1828603       -31.95909
1.656                 -0.1865361       -32.11084
1.66                  -0.1902768       -32.26332
1.664                 -0.1940822       -32.41655
1.668                 -0.1979498       -32.57052
1.672                 -0.2018802       -32.72523
1.676                 -0.2058752        -32.8807
1.68                  -0.2099329       -33.03694
1.684                 -0.2140524       -33.19394
1.688                 -0.2182341       -33.35171
1.692                 -0.2224785       -33.51028
1.696                 -0.2267831       -33.66963
1.7                   -0.2311489       -33.82978
1.704                 -0.2355748       -33.99074
1.708                 -0.2400614       -34.15253
1.712                 -0.2446069       -34.31513
1.716                 -0.2492126       -34.47859
1.72                  -0.2538764       -34.64289
1.724                 -0.2585983       -34.80805
1.728                 -0.2633797        -34.9741
1.732                 -0.2682185       -35.14103
1.736                 -0.2731142       -35.30886
1.74                  -0.2780672       -35.47762
1.744                 -0.2830776       -35.64731
1.748                 -0.2881441       -35.81795
1.752                 -0.2932689       -35.98955
1.756                 -0.2984491       -36.16214
1.76                  -0.3036861       -36.33574
1.764                 -0.3089778       -36.51035
1.768                 -0.3143261         -36.686
1.772                 -0.3197321       -36.86271
1.776                 -0.3251946       -37.04049
1.78                  -0.3307142       -37.21939
1.784                 -0.3362886       -37.39939
1.788                 -0.3419225       -37.58055
1.792                 -0.3476135       -37.76287
1.796                 -0.3533627       -37.94638
1.8                   -0.3591715       -38.13112
1.804                 -0.3650386       -38.31708
1.808                 -0.3709672       -38.50432
1.812                 -0.3769556       -38.69284
1.816                  -0.383008       -38.88269
1.82                   -0.389123       -39.07388
1.824                 -0.3953016       -39.26643
1.828                  -0.401547        -39.4604
1.832                 -0.4078594       -39.65579
1.836                 -0.4142394       -39.85263
1.84                  -0.4206914       -40.05098
1.844                 -0.4272147       -40.25083
1.848                 -0.4338123       -40.45224
1.852                 -0.4404855       -40.65522
1.856                 -0.4472376       -40.85981
1.86                  -0.4540708       -41.06606
1.864                 -0.4609858       -41.27397
1.868                 -0.4679876        -41.4836
1.872                 -0.4750775       -41.69495
1.876                 -0.4822587        -41.9081
1.88                  -0.4895354       -42.12304
1.884                  -0.496909       -42.33983
1.888                 -0.5043841       -42.55849
1.892                 -0.5119639       -42.77906
1.896                 -0.5196515       -43.00158
1.9                   -0.5274513       -43.22607
1.904                 -0.5353678       -43.45257
1.908                 -0.5434036       -43.68113
1.912                 -0.5515646       -43.91176
1.916                 -0.5598558       -44.14452
1.92                  -0.5682801       -44.37942
1.924                 -0.5768429       -44.61651
1.928                 -0.5855504       -44.85583
1.932                 -0.5944062        -45.0974
1.936                 -0.6034167       -45.34126
1.94                  -0.6125875       -45.58745
1.944                 -0.6219231         -45.836
1.948                 -0.6314302       -46.08694
1.952                 -0.6411153       -46.34031
1.956                 -0.6509829       -46.59614
1.96                  -0.6610416       -46.85448
1.964                 -0.6712969       -47.11535
1.968                 -0.6817557       -47.37878
1.972                 -0.6924239        -47.6448
1.976                 -0.7033095       -47.91346
1.98                  -0.7144205       -48.18478
1.984                 -0.7257629        -48.4588
1.988                 -0.7373449       -48.73554
1.992                  -0.749174       -49.01505
1.996                 -0.7612574       -49.29735
2                     -0.7736033       -49.58247
2.004                 -0.7862226       -49.87044
2.008                 -0.7991194       -50.16129
2.012                 -0.8123052       -50.45505
2.016                 -0.8257876       -50.75175
2.02                  -0.8395744       -51.05142
2.024                 -0.8536764        -51.3541
2.028                 -0.8681023        -51.6598
2.032                 -0.8828596       -51.96854
2.036                 -0.8979606       -52.28038
2.04                  -0.9134128       -52.59532
2.044                 -0.9292261        -52.9134
2.048                 -0.9454098       -53.23463
2.052                 -0.9619754       -53.55905
2.056                 -0.9789322       -53.88667
2.06                  -0.9962909       -54.21753
2.064                  -1.014062       -54.55165
2.068                  -1.032253       -54.88905
2.072                  -1.050878       -55.22974
2.076                  -1.069947       -55.57377
2.08                   -1.089472       -55.92114
2.084                   -1.10946       -56.27189
2.088                  -1.129928       -56.62603
2.092                  -1.150882       -56.98358
2.096                  -1.172335       -57.34456
2.1                    -1.194301       -57.70899
2.104                  -1.216789        -58.0769
2.108                  -1.239812       -58.44829
2.112                  -1.263381       -58.82321
2.116                  -1.287508       -59.20164
2.12                   -1.312207       -59.58363
2.124                   -1.33749       -59.96919
2.128                  -1.363368       -60.35833
2.132                  -1.389853       -60.75107
2.136                   -1.41696       -61.14744
2.14                     -1.4447       -61.54744
2.144                  -1.473088       -61.95111
2.148                  -1.502134       -62.35843
2.152                  -1.531854       -62.76946
2.156                  -1.562262        -63.1842
2.16                   -1.593368       -63.60265
2.164                  -1.625189       -64.02486
2.168                  -1.657736       -64.45082
2.172                  -1.691027       -64.88056
2.176                  -1.725071        -65.3141
2.18                   -1.759888       -65.75145
2.184                  -1.795487       -66.19264
2.188                  -1.831886       -66.63768
2.192                  -1.869099       -67.08659
2.196                   -1.90714       -67.53939
2.2                    -1.946026        -67.9961
2.204                  -1.985772       -68.45675
2.208                  -2.026391       -68.92134
2.212                  -2.067902       -69.38992
2.216                  -2.110318       -69.86249
2.22                   -2.153658       -70.33907
2.224                  -2.197936        -70.8197
2.228                   -2.24317        -71.3044
2.232                  -2.289377       -71.79319
2.236                  -2.336571       -72.28611
2.24                   -2.384774       -72.78316
2.244                     -2.434       -73.28441
2.248                  -2.484268       -73.78986
2.252                  -2.535596       -74.29957
2.256                  -2.588003       -74.81353
2.26                   -2.641505       -75.33182
2.264                  -2.696124       -75.85445
2.268                  -2.751879       -76.38147
2.272                  -2.808787       -76.91291
2.276                  -2.866872       -77.44883
2.28                   -2.926149       -77.98927
2.284                  -2.986644       -78.53426
2.288                  -3.048374       -79.08387
2.292                  -3.111363       -79.63816
2.296                  -3.175632       -80.19714
2.3                    -3.241203        -80.7609
2.304                  -3.308098       -81.32953
2.308                  -3.376341       -81.90305
2.312                  -3.445956       -82.48154
2.316                  -3.516968       -83.06508
2.32                   -3.589398       -83.65373
2.324                  -3.663276       -84.24761
2.328                  -3.738624       -84.84675
2.332                  -3.815468       -85.45129
2.336                  -3.893839       -86.06129
2.34                    -3.97376       -86.67686
2.344                  -4.055263       -87.29811
2.348                  -4.138374       -87.92514
2.352                  -4.223123       -88.55808
2.356                   -4.30954       -89.19706
2.36                   -4.397659        -89.8422
2.364                  -4.487508       -90.49365
2.368                   -4.57912       -91.15153
2.372                   -4.67253       -91.81604
2.376                  -4.767772       -92.48733
2.38                    -4.86488       -93.16555
2.384                  -4.963891       -93.85091
2.388                  -5.064839       -94.54361
2.392                  -5.167766       -95.24386
2.396                  -5.272709       -95.95186
2.4                    -5.379708       -96.66787
2.404                  -5.488803       -97.39211