! TOUCHSTONE file generated by CST MICROWAVE STUDIO
! Date and time: Fri May  6 09:22:54 2022
! Project name: ant1_ceramic_sweep_10porcent.cst
! Parameters = {e=0.035; h=1.6; i=0.8; l1=0.5; l2=17; ls=88; wl=1.7; ws=30}
! Header version: 2018
! Port assignment regex: !\s*Touchstone port\s*([0-9]+)\s*=\s*(CST MWS port|CST DS port)\s*([0-9]+|Zmin|Zmax)\s*\(\"(.*)\"\)(\s*mode\s*([0-9]+))?.*
! Touchstone port assignment:
! Touchstone port 1 = CST MWS port 1 ("")
# GHz S DB R 50
0                  -0.0003851917              -0
0.004              -0.0003905371     -0.05826884
0.008              -0.0004034676      -0.1165354
0.012              -0.0004239855      -0.1747972
0.016              -0.0004531301      -0.2330521
0.02               -0.0004903888      -0.2912978
0.024              -0.0005357684       -0.349532
0.028              -0.0005882416      -0.4077524
0.032               -0.000649371       -0.465957
0.036              -0.0007176144      -0.5241437
0.04               -0.0007940192      -0.5823104
0.044              -0.0008765278       -0.640455
0.048              -0.0009672255      -0.6985759
0.052               -0.001064057      -0.7566711
0.056               -0.001167038      -0.8147389
0.06                -0.001276704      -0.8727778
0.064                -0.00139152      -0.9307861
0.068               -0.001513056      -0.9887629
0.072               -0.001638227       -1.046706
0.076                -0.00176964       -1.104616
0.08                -0.001903691       -1.162489
0.084               -0.002042989       -1.220327
0.088               -0.002185481       -1.278128
0.092               -0.002331707       -1.335891
0.096               -0.002479614       -1.393616
0.1                 -0.002630776       -1.451304
0.104               -0.002784176       -1.508952
0.108               -0.002938278       -1.566562
0.112               -0.003093619       -1.624134
0.116               -0.003249178       -1.681668
0.12                -0.003406524       -1.739164
0.124                -0.00356205       -1.796624
0.128               -0.003715768       -1.854047
0.132               -0.003870275       -1.911435
0.136               -0.004021444        -1.96879
0.14                -0.004172387       -2.026111
0.144               -0.004318971       -2.083402
0.148               -0.004464308       -2.140662
0.152               -0.004604257       -2.197894
0.156               -0.004742444       -2.255101
0.16                -0.004874207       -2.312283
0.164               -0.005003172       -2.369444
0.168               -0.005124665       -2.426585
0.172                -0.00524231       -2.483709
0.176                -0.00535454       -2.540818
0.18                -0.005461343       -2.597916
0.184               -0.005560114       -2.655005
0.188               -0.005652388       -2.712088
0.192               -0.005738663       -2.769168
0.196               -0.005816324       -2.826248
0.2                 -0.005886904       -2.883332
0.204               -0.005950883       -2.940424
0.208                -0.00600513       -2.997525
0.212                 -0.0060522        -3.05464
0.216               -0.006091015       -3.111773
0.22                -0.006121021       -3.168927
0.224               -0.006142694       -3.226105
0.228               -0.006155471       -3.283312
0.232               -0.006159299       -3.340553
0.236               -0.006154659       -3.397828
0.24                -0.006141483       -3.455144
0.244               -0.006119727       -3.512504
0.248               -0.006088811       -3.569912
0.252               -0.006049197        -3.62737
0.256               -0.006000306       -3.684884
0.26                -0.005944144       -3.742457
0.264               -0.005879606       -3.800094
0.268                -0.00580663       -3.857796
0.272               -0.005724632       -3.915569
0.276               -0.005636119       -3.973416
0.28                -0.005540519        -4.03134
0.284               -0.005435672       -4.089344
0.288               -0.005326165       -4.147434
0.292                 -0.0052078        -4.20561
0.296               -0.005084618       -4.263877
0.3                 -0.004954997       -4.322238
0.304               -0.004820419       -4.380696
0.308               -0.004679254       -4.439253
0.312               -0.004534008       -4.497912
0.316               -0.004383569       -4.556676
0.32                  -0.0042294       -4.615548
0.324               -0.004070929       -4.674528
0.328               -0.003910133       -4.733621
0.332               -0.003746426       -4.792828
0.336               -0.003581291        -4.85215
0.34                -0.003414113        -4.91159
0.344                -0.00324381       -4.971148
0.348               -0.003074952       -5.030827
0.352               -0.002905916       -5.090627
0.356               -0.002735079        -5.15055
0.36                -0.002566537       -5.210596
0.364               -0.002398644       -5.270766
0.368               -0.002232896       -5.331062
0.372               -0.002069763       -5.391481
0.376               -0.001908655       -5.452026
0.38                -0.001751592       -5.512696
0.384               -0.001598519       -5.573491
0.388               -0.001449369       -5.634412
0.392               -0.001305678       -5.695456
0.396                -0.00116687       -5.756623
0.4                  -0.00103392       -5.817913
0.404                -0.00090733       -5.879325
0.408              -0.0007870532       -5.940857
0.412              -0.0006741005       -6.002508
0.416              -0.0005689277       -6.064279
0.42               -0.0004705083       -6.126164
0.424              -0.0003819222       -6.188165
0.428              -0.0003010537       -6.250278
0.432              -0.0002279033       -6.312502
0.436              -0.0001655607       -6.374835
0.44               -0.0001135076       -6.437275
0.444              -6.962596e-05       -6.499819
0.448              -3.655312e-05       -6.562465
0.452              -1.372431e-05       -6.625212
0.456              -1.164485e-06       -6.688055
0.46                8.570271e-08       -6.750993
0.464              -9.458432e-06       -6.814022
0.468              -2.927565e-05       -6.877142
0.472              -6.041931e-05       -6.940348
0.476              -0.0001034229       -7.003639
0.48               -0.0001567666        -7.06701
0.484              -0.0002209564        -7.13046
0.488              -0.0002960337       -7.193985
0.492              -0.0003824995       -7.257585
0.496              -0.0004809454       -7.321254
0.5                -0.0005882397       -7.384991
0.504              -0.0007070499       -7.448792
0.508              -0.0008363008       -7.512657
0.512              -0.0009765767       -7.576582
0.516               -0.001126856       -7.640564
0.52                -0.001286154         -7.7046
0.524               -0.001455471       -7.768691
0.528               -0.001634354       -7.832831
0.532               -0.001822834        -7.89702
0.536               -0.002017792       -7.961255
0.54                -0.002221823       -8.025536
0.544                -0.00243397       -8.089859
0.548               -0.002653647       -8.154226
0.552               -0.002880431       -8.218631
0.556               -0.003113259       -8.283075
0.56                -0.003353195       -8.347556
0.564               -0.003596558       -8.412074
0.568                -0.00384648        -8.47663
0.572               -0.004100403        -8.54122
0.576               -0.004358764       -8.605847
0.58                -0.004620619       -8.670506
0.584                -0.00488479       -8.735202
0.588               -0.005150295       -8.799933
0.592               -0.005418103         -8.8647
0.596               -0.005687662       -8.929504
0.6                 -0.005956889       -8.994344
0.604               -0.006226748       -9.059223
0.608               -0.006495072       -9.124142
0.612               -0.006762414       -9.189101
0.616                -0.00702914       -9.254105
0.62                -0.007291567       -9.319152
0.624               -0.007552206       -9.384248
0.628               -0.007808435        -9.44939
0.632               -0.008060039       -9.514587
0.636               -0.008306989       -9.579838
0.64                -0.008550214       -9.645147
0.644               -0.008786468       -9.710517
0.648                -0.00901612       -9.775952
0.652               -0.009239603       -9.841454
0.656               -0.009455128        -9.90703
0.66                -0.009662168       -9.972678
0.664               -0.009862479       -10.03841
0.668                -0.01005342       -10.10423
0.672                -0.01023581       -10.17013
0.676                 -0.0104074       -10.23613
0.68                 -0.01057108       -10.30223
0.684                 -0.0107231       -10.36843
0.688                -0.01086576       -10.43474
0.692                -0.01099684       -10.50116
0.696                -0.01111766       -10.56771
0.7                  -0.01122797       -10.63438
0.704                -0.01132604       -10.70117
0.708                -0.01141418       -10.76811
0.712                -0.01149008       -10.83519
0.716                -0.01155408       -10.90241
0.72                 -0.01160738       -10.96979
0.724                 -0.0116482       -11.03733
0.728                -0.01167837       -11.10503
0.732                -0.01169664       -11.17291
0.736                -0.01170415       -11.24096
0.74                 -0.01169975        -11.3092
0.744                -0.01168517       -11.37762
0.748                -0.01166007       -11.44625
0.752                -0.01162374       -11.51507
0.756                -0.01157842        -11.5841
0.76                 -0.01152238       -11.65334
0.764                -0.01145731        -11.7228
0.768                -0.01138345       -11.79248
0.772                -0.01130104        -11.8624
0.776                 -0.0112098       -11.93255
0.78                 -0.01111207       -12.00294
0.784                -0.01100704       -12.07357
0.788                -0.01089488       -12.14445
0.792                -0.01077799       -12.21559
0.796                -0.01065545       -12.28699
0.8                  -0.01052814       -12.35865
0.804                -0.01039679       -12.43058
0.808                -0.01026167       -12.50279
0.812                  -0.010125       -12.57527
0.816               -0.009986189       -12.64802
0.82                -0.009845845       -12.72107
0.824               -0.009706363        -12.7944
0.828               -0.009567067       -12.86802
0.832               -0.009429189       -12.94193
0.836               -0.009293538       -13.01614
0.84                -0.009159966       -13.09064
0.844               -0.009031267       -13.16545
0.848               -0.008907262       -13.24055
0.852               -0.008788304       -13.31596
0.856               -0.008675784       -13.39167
0.86                -0.008570969       -13.46769
0.864               -0.008473735       -13.54402
0.868               -0.008386062       -13.62065
0.872               -0.008307641       -13.69759
0.876               -0.008239002       -13.77483
0.88                -0.008183007       -13.85238
0.884               -0.008139024       -13.93024
0.888               -0.008107555       -14.00841
0.892               -0.008090421       -14.08688
0.896               -0.008087589       -14.16565
0.9                 -0.008100001       -14.24473
0.904                 -0.0081286        -14.3241
0.908               -0.008173827       -14.40378
0.912               -0.008236157       -14.48375
0.916               -0.008316567       -14.56402
0.92                -0.008415068       -14.64458
0.924               -0.008533577       -14.72543
0.928               -0.008670605       -14.80657
0.932               -0.008828605       -14.88799
0.936                -0.00900723       -14.96969
0.94                -0.009206866       -15.05168
0.944               -0.009427039       -15.13393
0.948               -0.009670276       -15.21646
0.952               -0.009935743       -15.29926
0.956                -0.01022377       -15.38232
0.96                 -0.01053389       -15.46564
0.964                -0.01086671       -15.54922
0.968                -0.01122328       -15.63305
0.972                -0.01160265       -15.71714
0.976                -0.01200485       -15.80147
0.98                 -0.01243089       -15.88604
0.984                 -0.0128793       -15.97085
0.988                -0.01335159       -16.05589
0.992                -0.01384639       -16.14117
0.996                -0.01436412       -16.22667
1                     -0.0149055        -16.3124
1.004                -0.01546825       -16.39835
1.008                -0.01605315       -16.48452
1.012                -0.01665958        -16.5709
1.016                -0.01728761        -16.6575
1.02                 -0.01793669        -16.7443
1.024                -0.01860481        -16.8313
1.028                -0.01929456       -16.91853
1.032                -0.02000265       -17.00596
1.036                -0.02072968       -17.09357
1.04                 -0.02147546       -17.18136
1.044                 -0.0222384       -17.26939
1.048                -0.02301744       -17.35758
1.052                 -0.0238136       -17.44599
1.056                -0.02462438       -17.53459
1.06                 -0.02544926       -17.62335
1.064                -0.02628938       -17.71233
1.068                -0.02714103       -17.80151
1.072                -0.02800573       -17.89088
1.076                -0.02888071       -17.98044
1.08                 -0.02976585       -18.07019
1.084                -0.03066047       -18.16015
1.088                -0.03156424       -18.25031
1.092                -0.03247473       -18.34066
1.096                -0.03339165       -18.43125
1.1                  -0.03431436       -18.52204
1.104                -0.03524223       -18.61302
1.108                -0.03617264       -18.70422
1.112                -0.03710603       -18.79563
1.116                -0.03804138       -18.88729
1.12                 -0.03897746       -18.97914
1.124                -0.03991402        -19.0713
1.128                -0.04084983       -19.16365
1.132                -0.04178297       -19.25625
1.136                -0.04271392       -19.34912
1.14                 -0.04364107       -19.44225
1.144                -0.04456398       -19.53565
1.148                -0.04548135       -19.62932
1.152                -0.04639311       -19.72329
1.156                -0.04729814       -19.81755
1.16                 -0.04819607       -19.91211
1.164                -0.04908487       -20.00699
1.168                -0.04996604       -20.10219
1.172                -0.05083914       -20.19773
1.176                -0.05170098       -20.29361
1.18                 -0.05255416       -20.38985
1.184                -0.05339525       -20.48645
1.188                -0.05422612       -20.58343
1.192                -0.05504676        -20.6808
1.196                -0.05585511       -20.77857
1.2                  -0.05665178       -20.87676
1.204                -0.05743756       -20.97537
1.208                -0.05821125       -21.07441
1.212                -0.05897284       -21.17391
1.216                -0.05972325       -21.27387
1.22                 -0.06046163        -21.3743
1.224                -0.06118938       -21.47523
1.228                -0.06190534       -21.57666
1.232                -0.06261134        -21.6786
1.236                -0.06330696       -21.78107
1.24                 -0.06399294       -21.88408
1.244                -0.06466865       -21.98765
1.248                -0.06533738       -22.09179
1.252                 -0.0659979       -22.19651
1.256                -0.06665087       -22.30182
1.26                 -0.06729674       -22.40775
1.264                -0.06793876       -22.51429
1.268                -0.06857658       -22.62147
1.272                -0.06921011        -22.7293
1.276                -0.06984198       -22.83779
1.28                 -0.07047313       -22.94695
1.284                 -0.0711043       -23.05679
1.288                -0.07173671       -23.16734
1.292                -0.07237281       -23.27859
1.296                -0.07301204       -23.39056
1.3                  -0.07365808       -23.50326
1.304                -0.07431204       -23.61671
1.308                -0.07497386       -23.73091
1.312                -0.07564693       -23.84588
1.316                -0.07633181       -23.96162
1.32                 -0.07703159       -24.07815
1.324                -0.07774678       -24.19548
1.328                -0.07847993        -24.3136
1.332                -0.07923179       -24.43253
1.336                -0.08000608       -24.55229
1.34                 -0.08080301       -24.67288
1.344                -0.08162601        -24.7943
1.348                -0.08247492       -24.91657
1.352                -0.08335456       -25.03969
1.356                -0.08426474       -25.16366
1.36                 -0.08520871       -25.28849
1.364                -0.08618733        -25.4142
1.368                -0.08720405       -25.54077
1.372                -0.08825945       -25.66823
1.376                -0.08935689       -25.79656
1.38                 -0.09049677       -25.92578
1.384                -0.09168316       -26.05589
1.388                -0.09291726       -26.18689
1.392                -0.09420005       -26.31879
1.396                -0.09553451       -26.45158
1.4                  -0.09692265       -26.58527
1.404                -0.09836558       -26.71986
1.408                -0.09986658       -26.85535
1.412                 -0.1014263       -26.99174
1.416                 -0.1030465       -27.12903
1.42                  -0.1047307       -27.26723
1.424                 -0.1064779       -27.40632
1.428                 -0.1082916       -27.54632
1.432                 -0.1101743       -27.68722
1.436                 -0.1121261       -27.82901
1.44                  -0.1141482       -27.97169
1.444                 -0.1162426       -28.11528
1.448                 -0.1184105       -28.25975
1.452                 -0.1206546       -28.40513
1.456                 -0.1229759       -28.55139
1.46                  -0.1253733       -28.69852
1.464                 -0.1278512       -28.84656
1.468                 -0.1304085       -28.99547
1.472                 -0.1330462       -29.14526
1.476                 -0.1357655       -29.29593
1.48                  -0.1385688       -29.44747
1.484                  -0.141455       -29.59988
1.488                 -0.1444266       -29.75316
1.492                 -0.1474826       -29.90732
1.496                 -0.1506255       -30.06233
1.5                   -0.1538536       -30.21821
1.504                 -0.1571678       -30.37495
1.508                 -0.1605691       -30.53255
1.512                 -0.1640581       -30.69101
1.516                 -0.1676342       -30.85034
1.52                  -0.1712977       -31.01052
1.524                 -0.1750484       -31.17155
1.528                 -0.1788879       -31.33344
1.532                 -0.1828138       -31.49619
1.536                 -0.1868275        -31.6598
1.54                  -0.1909284       -31.82428
1.544                 -0.1951149       -31.98961
1.548                 -0.1993889       -32.15581
1.552                 -0.2037498       -32.32289
1.556                  -0.208195       -32.49084
1.56                  -0.2127261       -32.65966
1.564                  -0.217341       -32.82937
1.568                 -0.2220411       -32.99997
1.572                 -0.2268229       -33.17146
1.576                 -0.2316888       -33.34386
1.58                  -0.2366371       -33.51718
1.584                 -0.2416655       -33.69142
1.588                 -0.2467754       -33.86658
1.592                 -0.2519642       -34.04269
1.596                  -0.257233       -34.21976
1.6                   -0.2625798       -34.39779
1.604                 -0.2680052       -34.57681
1.608                 -0.2735062       -34.75683
1.612                 -0.2790845       -34.93786
1.616                 -0.2847375       -35.11991
1.62                  -0.2904656       -35.30302
1.624                 -0.2962675       -35.48718
1.628                 -0.3021447       -35.67244
1.632                 -0.3080924        -35.8588
1.636                 -0.3141145        -36.0463
1.64                  -0.3202087       -36.23494
1.644                 -0.3263741       -36.42477
1.648                 -0.3326112       -36.61578
1.652                 -0.3389198       -36.80803
1.656                  -0.345299       -37.00152
1.66                  -0.3517513       -37.19631
1.664                 -0.3582722        -37.3924
1.668                 -0.3648666       -37.58984
1.672                 -0.3715324       -37.78866
1.676                 -0.3782698       -37.98886
1.68                  -0.3850806       -38.19052
1.684                 -0.3919657       -38.39365
1.688                 -0.3989262       -38.59829
1.692                  -0.405961       -38.80447
1.696                 -0.4130734       -39.01224
1.7                   -0.4202656       -39.22163
1.704                 -0.4275355       -39.43267
1.708                 -0.4348873       -39.64541
1.712                 -0.4423244       -39.85989
1.716                 -0.4498458       -40.07616
1.72                  -0.4574559       -40.29424
1.724                 -0.4651564       -40.51419
1.728                 -0.4729499       -40.73605
1.732                 -0.4808412       -40.95986
1.736                 -0.4888318       -41.18568
1.74                   -0.496926       -41.41354
1.744                 -0.5051262       -41.64348
1.748                 -0.5134383       -41.87555
1.752                 -0.5218651       -42.10982
1.756                 -0.5304103       -42.34631
1.76                  -0.5390817       -42.58507
1.764                 -0.5478803       -42.82616
1.768                 -0.5568138       -43.06962
1.772                 -0.5658869       -43.31551
1.776                 -0.5751048       -43.56386
1.78                  -0.5844742       -43.81472
1.784                 -0.5940022       -44.06815
1.788                 -0.6036922       -44.32419
1.792                 -0.6135552        -44.5829
1.796                 -0.6235956       -44.84432
1.8                   -0.6338204        -45.1085
1.804                 -0.6442388       -45.37549
1.808                 -0.6548571       -45.64533
1.812                 -0.6656842       -45.91807
1.816                 -0.6767285       -46.19376
1.82                  -0.6879982       -46.47245
1.824                 -0.6995033       -46.75418
1.828                 -0.7112515         -47.039
1.832                 -0.7232528       -47.32696
1.836                 -0.7355185       -47.61811
1.84                  -0.7480559       -47.91247
1.844                 -0.7608765       -48.21011
1.848                 -0.7739922       -48.51107
1.852                 -0.7874103       -48.81537
1.856                 -0.8011451       -49.12308
1.86                  -0.8152072       -49.43424
1.864                 -0.8296053       -49.74887
1.868                 -0.8443548       -50.06703
1.872                 -0.8594651       -50.38874
1.876                 -0.8749496       -50.71407
1.88                  -0.8908211       -51.04302
1.884                 -0.9070921       -51.37568
1.888                 -0.9237743       -51.71202
1.892                 -0.9408824       -52.05214
1.896                 -0.9584281       -52.39603
1.9                   -0.9764258       -52.74374
1.904                 -0.9948896        -53.0953
1.908                  -1.013834       -53.45076
1.912                  -1.033272       -53.81014
1.916                  -1.053219       -54.17346
1.92                   -1.073688       -54.54076
1.924                  -1.094696       -54.91207
1.928                  -1.116255       -55.28741
1.932                  -1.138384       -55.66684
1.936                  -1.161096       -56.05034
1.94                   -1.184408       -56.43798
1.944                  -1.208333       -56.82975
1.948                  -1.232891       -57.22571
1.952                  -1.258096       -57.62585
1.956                  -1.283964       -58.03022
1.96                   -1.310514       -58.43883
1.964                   -1.33776       -58.85172
1.968                   -1.36572       -59.26889
1.972                  -1.394411       -59.69037
1.976                  -1.423853       -60.11619
1.98                   -1.454059       -60.54637
1.984                  -1.485051       -60.98092
1.988                  -1.516842       -61.41986
1.992                  -1.549457       -61.86323
1.996                  -1.582909       -62.31103
2                      -1.617219        -62.7633
2.004                  -1.652405       -63.22002
2.008                  -1.688487       -63.68126
2.012                  -1.725482       -64.14702
2.016                  -1.763413       -64.61731
2.02                   -1.802297       -65.09215
2.024                  -1.842156       -65.57159
2.028                   -1.88301       -66.05562
2.032                  -1.924877       -66.54427
2.036                  -1.967782       -67.03758
2.04                   -2.011741       -67.53554
2.044                  -2.056781       -68.03819
2.048                  -2.102919       -68.54555
2.052                  -2.150181       -69.05767
2.056                  -2.198585       -69.57454
2.06                   -2.248159        -70.0962
2.064                   -2.29892       -70.62269
2.068                  -2.350896       -71.15402
2.072                  -2.404109       -71.69025
2.076                  -2.458583       -72.23138
2.08                   -2.514343       -72.77745
2.084                  -2.571414       -73.32852
2.088                  -2.629822        -73.8846
2.092                  -2.689593       -74.44576
2.096                   -2.75075       -75.01202
2.1                    -2.813325       -75.58343
2.104                  -2.877342       -76.16003
2.108                   -2.94283        -76.7419
2.112                  -3.009817       -77.32906
2.116                  -3.078335       -77.92159
2.12                   -3.148409       -78.51954
2.124                  -3.220073       -79.12298
2.128                  -3.293357       -79.73198
2.132                  -3.368293       -80.34661
2.136                  -3.444913       -80.96694
2.14                   -3.523253       -81.59307
2.144                  -3.603343       -82.22508
2.148                  -3.685223       -82.86307
2.152                  -3.768924       -83.50713
2.156                  -3.854486       -84.15738
2.16                   -3.941948       -84.81394
2.164                  -4.031343       -85.47688
2.168                  -4.122719        -86.1464
2.172                  -4.216112       -86.82259
2.176                  -4.311566       -87.50563
2.18                   -4.409124       -88.19565
2.184                   -4.50883       -88.89282
2.188                  -4.610733       -89.59734
2.192                  -4.714879       -90.30937
2.196                  -4.821315       -91.02915
2.2                    -4.930095       -91.75688
2.204                   -5.04127       -92.49279
2.208                  -5.154893       -93.23712
2.212                   -5.27102       -93.99016
2.216                  -5.389708       -94.75218
2.22                   -5.511017       -95.52348
2.224                   -5.63501       -96.30439
2.228                  -5.761746       -97.09527
2.232                  -5.891295        -97.8965
2.236                  -6.023721       -98.70846
2.24                   -6.159096       -99.53158
2.244                  -6.297492       -100.3663
2.248                  -6.438982       -101.2132
2.252                  -6.583645       -102.0728
2.256                   -6.73156       -102.9456
2.26                   -6.882808       -103.8322
2.264                  -7.037477       -104.7334
2.268                  -7.195652       -105.6498
2.272                  -7.357423       -106.5822
2.276                  -7.522885       -107.5315
2.28                   -7.692132       -108.4986
2.284                   -7.86526       -109.4844
2.288                  -8.042373         -110.49
2.292                  -8.223573       -111.5165
2.296                  -8.408962       -112.5652
2.3                    -8.598647       -113.6375
2.304                  -8.792738       -114.7348
2.308                  -8.991337       -115.8587
2.312                  -9.194556       -117.0109
2.316                  -9.402499       -118.1933
2.32                   -9.615272       -119.4079
2.324                  -9.832972       -120.6571
2.328                   -10.0557       -121.9433
2.332                  -10.28353        -123.269
2.336                  -10.51655       -124.6372
2.34                   -10.75482       -126.0512
2.344                  -10.99838       -127.5142
2.348                  -11.24726       -129.0302
2.352                  -11.50144       -130.6032
2.356                  -11.76089       -132.2378
2.36                    -12.0255       -133.9387
2.364                  -12.29514       -135.7114
2.368                   -12.5696       -137.5614
2.372                  -12.84857        -139.495
2.376                  -13.13165       -141.5189
2.38                   -13.41834         -143.64
2.384                  -13.70796       -145.8658
2.388                  -13.99967       -148.2041
2.392                  -14.29244       -150.6629
2.396                    -14.585       -153.2502
2.4                    -14.87583        -155.974
2.404                  -15.16308       -158.8417