! TOUCHSTONE file generated by CST MICROWAVE STUDIO
! Date and time: Fri May  6 09:22:47 2022
! Project name: ant1_ceramic_sweep_10porcent.cst
! Parameters = {e=0.035; h=1.6; i=0.72; l1=0.5; l2=17; ls=80; wl=1.7; ws=30}
! Header version: 2018
! Port assignment regex: !\s*Touchstone port\s*([0-9]+)\s*=\s*(CST MWS port|CST DS port)\s*([0-9]+|Zmin|Zmax)\s*\(\"(.*)\"\)(\s*mode\s*([0-9]+))?.*
! Touchstone port assignment:
! Touchstone port 1 = CST MWS port 1 ("")
# GHz S DB R 50
0                  -0.0002008774              -0
0.004              -0.0002143545     -0.05924581
0.008              -0.0002568594      -0.1184829
0.012              -0.0003258124      -0.1777027
0.016               -0.000423817      -0.2368965
0.02               -0.0005488225      -0.2960558
0.024              -0.0006993019       -0.355172
0.028              -0.0008783935       -0.414237
0.032               -0.001083028      -0.4732424
0.036               -0.001312729      -0.5321802
0.04                -0.001568063      -0.5910426
0.044               -0.001848047      -0.6498218
0.048               -0.002152736      -0.7085107
0.052               -0.002478567      -0.7671017
0.056               -0.002827676      -0.8255881
0.06                -0.003197544      -0.8839632
0.064               -0.003588241      -0.9422207
0.068               -0.003997772       -1.000354
0.072               -0.004426732       -1.058359
0.076               -0.004871059       -1.116228
0.08                -0.005332905       -1.173959
0.084               -0.005808727       -1.231545
0.088               -0.006298612       -1.288982
0.092               -0.006801089       -1.346267
0.096               -0.007314692       -1.403397
0.1                 -0.007837949       -1.460368
0.104               -0.008369394       -1.517179
0.108               -0.008909108       -1.573826
0.112                -0.00945355       -1.630309
0.116                -0.01000228       -1.686626
0.12                 -0.01055434       -1.742776
0.124                -0.01110774        -1.79876
0.128                -0.01166151       -1.854578
0.132                -0.01221365        -1.91023
0.136                 -0.0127637       -1.965718
0.14                 -0.01330863       -2.021044
0.144                -0.01384848       -2.076209
0.148                -0.01438124       -2.131216
0.152                -0.01490592       -2.186069
0.156                -0.01541998       -2.240771
0.16                 -0.01592396       -2.295326
0.164                -0.01641634       -2.349739
0.168                -0.01689353       -2.404014
0.172                -0.01735658       -2.458157
0.176                -0.01780395       -2.512173
0.18                 -0.01823408        -2.56607
0.184                -0.01864491       -2.619852
0.188                -0.01903695       -2.673528
0.192                -0.01940863       -2.727104
0.196                -0.01975838       -2.780589
0.2                  -0.02008616       -2.833989
0.204                -0.02039039       -2.887314
0.208                -0.02067155       -2.940572
0.212                  -0.020927       -2.993772
0.216                 -0.0211572       -3.046922
0.22                 -0.02136156       -3.100032
0.224                -0.02153848       -3.153112
0.228                -0.02168942       -3.206171
0.232                -0.02181327       -3.259219
0.236                -0.02190786       -3.312266
0.24                 -0.02197466       -3.365322
0.244                -0.02201253       -3.418397
0.248                -0.02202343       -3.471501
0.252                -0.02200519       -3.524646
0.256                -0.02195819        -3.57784
0.26                 -0.02188336       -3.631094
0.264                -0.02178004        -3.68442
0.268                -0.02164863       -3.737825
0.272                -0.02149002       -3.791322
0.276                -0.02130355       -3.844919
0.28                 -0.02109114       -3.898627
0.284                -0.02085111       -3.952454
0.288                -0.02058638       -4.006413
0.292                -0.02029631        -4.06051
0.296                -0.01998176       -4.114755
0.3                  -0.01964413       -4.169157
0.304                -0.01928377       -4.223725
0.308                -0.01890157       -4.278466
0.312                 -0.0184989        -4.33339
0.316                -0.01807716       -4.388503
0.32                 -0.01763513       -4.443813
0.324                -0.01717629       -4.499326
0.328                -0.01670203        -4.55505
0.332                -0.01621165       -4.610991
0.336                 -0.0157076       -4.667153
0.34                 -0.01519125       -4.723544
0.344                -0.01466452       -4.780167
0.348                -0.01412777       -4.837028
0.352                -0.01358138       -4.894128
0.356                -0.01302931       -4.951475
0.36                 -0.01247145       -5.009068
0.364                -0.01190815       -5.066912
0.368                -0.01134187       -5.125008
0.372                -0.01077767       -5.183358
0.376                -0.01021176       -5.241965
0.38                -0.009646651       -5.300826
0.384               -0.009086348       -5.359944
0.388               -0.008530742       -5.419318
0.392               -0.007981811       -5.478947
0.396               -0.007440488       -5.538829
0.4                 -0.006906686       -5.598963
0.404                  -0.006385       -5.659347
0.408               -0.005875337       -5.719979
0.412               -0.005378169       -5.780854
0.416               -0.004897061        -5.84197
0.42                -0.004431963       -5.903323
0.424               -0.003982845       -5.964907
0.428               -0.003553317       -6.026718
0.432                -0.00314283        -6.08875
0.436               -0.002753462       -6.150998
0.44                -0.002386738       -6.213458
0.444               -0.002041683        -6.27612
0.448               -0.001721887       -6.338981
0.452               -0.001426934        -6.40203
0.456                 -0.0011568       -6.465262
0.46               -0.0009136519       -6.528669
0.464              -0.0006969964       -6.592244
0.468              -0.0005105704       -6.655978
0.472              -0.0003508051       -6.719863
0.476              -0.0002203757        -6.78389
0.48               -0.0001204365       -6.848052
0.484               -4.95316e-05       -6.912337
0.488              -9.840591e-06       -6.976739
0.492              -4.657393e-07       -7.041248
0.496               -2.25718e-05       -7.105855
0.5                -7.369376e-05       -7.170551
0.504              -0.0001570721       -7.235327
0.508              -0.0002703285       -7.300172
0.512               -0.000415111        -7.36508
0.516              -0.0005890227       -7.430039
0.52               -0.0007937653       -7.495042
0.524               -0.001027983       -7.560079
0.528               -0.001293356       -7.625143
0.532               -0.001585464       -7.690222
0.536               -0.001906494       -7.755311
0.54                  -0.0022551         -7.8204
0.544               -0.002630934       -7.885482
0.548               -0.003032608        -7.95055
0.552               -0.003459308       -8.015593
0.556               -0.003909604       -8.080607
0.56                -0.004384213       -8.145584
0.564               -0.004880194       -8.210517
0.568                -0.00539875       -8.275401
0.572               -0.005937917       -8.340232
0.576               -0.006492737       -8.404999
0.58                -0.007067441       -8.469703
0.584               -0.007658066       -8.534336
0.588               -0.008263175       -8.598894
0.592               -0.008881331       -8.663373
0.596               -0.009511595       -8.727772
0.6                  -0.01015459       -8.792088
0.604                 -0.0108042       -8.856316
0.608                -0.01146203       -8.920457
0.612                -0.01212657       -8.984511
0.616                -0.01279587       -9.048473
0.62                  -0.0134673       -9.112346
0.624                -0.01414043       -9.176129
0.628                -0.01481313       -9.239823
0.632                -0.01548388        -9.30343
0.636                -0.01615156       -9.366954
0.64                 -0.01681461       -9.430395
0.644                -0.01746986       -9.493755
0.648                -0.01811883        -9.55704
0.652                -0.01875719       -9.620255
0.656                -0.01938438       -9.683401
0.66                  -0.0199997       -9.746488
0.664                -0.02060051       -9.809516
0.668                -0.02118547       -9.872497
0.672                -0.02175451       -9.935434
0.676                 -0.0223053       -9.998336
0.68                 -0.02283555       -10.06121
0.684                -0.02334505       -10.12406
0.688                -0.02383353       -10.18691
0.692                -0.02429869       -10.24975
0.696                -0.02473913       -10.31259
0.7                  -0.02515563       -10.37546
0.704                -0.02554529       -10.43835
0.708                -0.02590723       -10.50128
0.712                -0.02624265       -10.56426
0.716                -0.02654918        -10.6273
0.72                 -0.02682685       -10.69041
0.724                -0.02707378        -10.7536
0.728                 -0.0272911       -10.81689
0.732                -0.02747795       -10.88028
0.736                -0.02763328       -10.94379
0.74                 -0.02775719       -11.00743
0.744                 -0.0278503       -11.07122
0.748                -0.02791263       -11.13516
0.752                -0.02794119       -11.19927
0.756                -0.02793955       -11.26357
0.76                 -0.02790628       -11.32805
0.764                -0.02784244       -11.39275
0.768                -0.02774749       -11.45766
0.772                -0.02762151        -11.5228
0.776                -0.02746703       -11.58819
0.78                 -0.02728308       -11.65384
0.784                -0.02707125       -11.71975
0.788                -0.02683104       -11.78595
0.792                -0.02656392       -11.85244
0.796                -0.02627111       -11.91923
0.8                  -0.02595404       -11.98633
0.804                -0.02561177       -12.05376
0.808                -0.02524692       -12.12153
0.812                -0.02486158       -12.18964
0.816                -0.02445631       -12.25811
0.82                 -0.02403116       -12.32694
0.824                -0.02358981       -12.39614
0.828                -0.02313128       -12.46573
0.832                -0.02265935       -12.53571
0.836                -0.02217397       -12.60609
0.84                  -0.0216779       -12.67687
0.844                -0.02117131       -12.74807
0.848                -0.02065841       -12.81968
0.852                -0.02013883       -12.89171
0.856                -0.01961428       -12.96418
0.86                 -0.01908805       -13.03707
0.864                -0.01856087        -13.1104
0.868                -0.01803495       -13.18418
0.872                -0.01751111       -13.25839
0.876                 -0.0169937       -13.33305
0.88                 -0.01648092       -13.40815
0.884                -0.01597873       -13.48371
0.888                -0.01548538        -13.5597
0.892                -0.01500588       -13.63615
0.896                -0.01453954       -13.71304
0.9                  -0.01408926       -13.79038
0.904                -0.01365755       -13.86816
0.908                 -0.0132438       -13.94638
0.912                 -0.0128526       -14.02504
0.916                -0.01248325       -14.10413
0.92                 -0.01213845       -14.18366
0.924                 -0.0118202        -14.2636
0.928                -0.01153001       -14.34397
0.932                -0.01126961       -14.42475
0.936                -0.01103941       -14.50594
0.94                 -0.01084112       -14.58753
0.944                 -0.0106758       -14.66952
0.948                -0.01054683        -14.7519
0.952                -0.01045217       -14.83465
0.956                -0.01039616       -14.91777
0.96                 -0.01037784       -15.00126
0.964                -0.01039748        -15.0851
0.968                -0.01045792       -15.16929
0.972                -0.01055931       -15.25382
0.976                -0.01070206       -15.33867
0.98                 -0.01088672       -15.42383
0.984                -0.01111485       -15.50931
0.988                -0.01138553       -15.59507
0.992                 -0.0116996       -15.68113
0.996                -0.01205846       -15.76746
1                     -0.0124604       -15.85406
1.004                 -0.0129072       -15.94091
1.008                -0.01339675       -16.02801
1.012                -0.01393133       -16.11534
1.016                -0.01450872        -16.2029
1.02                 -0.01513029       -16.29067
1.024                -0.01579386       -16.37865
1.028                -0.01650041       -16.46684
1.032                -0.01724901       -16.55517
1.036                -0.01803881       -16.64371
1.04                 -0.01886953        -16.7324
1.044                -0.01973936       -16.82127
1.048                -0.02064759       -16.91025
1.052                -0.02159388        -16.9994
1.056                -0.02257636       -17.08866
1.06                 -0.02359418       -17.17808
1.064                -0.02464582       -17.26758
1.068                 -0.0257301       -17.35722
1.072                -0.02684627       -17.44697
1.076                -0.02799176        -17.5368
1.08                 -0.02916543       -17.62674
1.084                -0.03036461       -17.71676
1.088                -0.03158993       -17.80687
1.092                -0.03283785       -17.89708
1.096                -0.03410734       -17.98735
1.1                  -0.03539577        -18.0777
1.104                -0.03670247       -18.16816
1.108                -0.03802357       -18.25867
1.112                -0.03935969       -18.34924
1.116                 -0.0407082       -18.43994
1.12                 -0.04206613        -18.5307
1.124                -0.04343001       -18.62154
1.128                -0.04480225       -18.71247
1.132                -0.04617695       -18.80349
1.136                 -0.0475543       -18.89461
1.14                 -0.04893094       -18.98583
1.144                -0.05030598       -19.07716
1.148                -0.05167505        -19.1686
1.152                 -0.0530397       -19.26016
1.156                -0.05439687       -19.35186
1.16                 -0.05574324       -19.44369
1.164                -0.05707744       -19.53568
1.168                -0.05839941       -19.62782
1.172                -0.05970522       -19.72014
1.176                -0.06099394       -19.81264
1.18                 -0.06226466       -19.90534
1.184                -0.06351396       -19.99825
1.188                -0.06474286       -20.09138
1.192                -0.06594824       -20.18475
1.196                 -0.0671295       -20.27838
1.2                  -0.06828447       -20.37228
1.204                -0.06941352       -20.46647
1.208                -0.07051431       -20.56095
1.212                -0.07158603       -20.65576
1.216                -0.07262819       -20.75091
1.22                 -0.07363959       -20.84642
1.224                 -0.0746203        -20.9423
1.228                -0.07556931       -21.03859
1.232                -0.07648644       -21.13529
1.236                -0.07737139       -21.23242
1.24                 -0.07822298       -21.33001
1.244                -0.07904243       -21.42807
1.248                -0.07982929       -21.52663
1.252                -0.08058347       -21.62571
1.256                -0.08130552       -21.72533
1.26                 -0.08199707       -21.82551
1.264                -0.08265688       -21.92627
1.268                -0.08328661       -22.02763
1.272                -0.08388635       -22.12961
1.276                -0.08445768       -22.23224
1.28                 -0.08500201       -22.33553
1.284                -0.08551866        -22.4395
1.288                -0.08601216       -22.54418
1.292                -0.08648044       -22.64959
1.296                -0.08692845       -22.75574
1.3                  -0.08735554       -22.86265
1.304                -0.08776368       -22.97036
1.308                -0.08815617       -23.07886
1.312                -0.08853347       -23.18818
1.316                -0.08889852       -23.29835
1.32                 -0.08925343       -23.40937
1.324                -0.08960017       -23.52126
1.328                -0.08994313       -23.63404
1.332                -0.09028186       -23.74773
1.336                 -0.0906201       -23.86235
1.34                 -0.09096085       -23.97789
1.344                -0.09130665       -24.09439
1.348                -0.09166054       -24.21185
1.352                -0.09202663       -24.33028
1.356                -0.09240546        -24.4497
1.36                 -0.09280168       -24.57012
1.364                -0.09321729       -24.69155
1.368                -0.09365653         -24.814
1.372                -0.09412077       -24.93747
1.376                -0.09461433       -25.06198
1.38                 -0.09514159       -25.18753
1.384                -0.09570353       -25.31413
1.388                -0.09630369       -25.44178
1.392                -0.09694757        -25.5705
1.396                 -0.0976354       -25.70027
1.4                  -0.09837161       -25.83112
1.404                -0.09916063       -25.96303
1.408                 -0.1000026       -26.09601
1.412                 -0.1009035       -26.23007
1.416                 -0.1018655        -26.3652
1.42                  -0.1028909        -26.5014
1.424                 -0.1039842       -26.63866
1.428                 -0.1051471         -26.777
1.432                 -0.1063817       -26.91641
1.436                 -0.1076938       -27.05687
1.44                  -0.1090829        -27.1984
1.444                 -0.1105545       -27.34098
1.448                  -0.112109       -27.48461
1.452                 -0.1137484       -27.62928
1.456                 -0.1154783       -27.77499
1.46                  -0.1172985       -27.92173
1.464                 -0.1192115       -28.06949
1.468                 -0.1212192       -28.21827
1.472                 -0.1233251       -28.36806
1.476                 -0.1255307       -28.51885
1.48                  -0.1278364       -28.67063
1.484                 -0.1302451       -28.82339
1.488                 -0.1327574       -28.97713
1.492                 -0.1353753       -29.13183
1.496                 -0.1381014       -29.28749
1.5                    -0.140935        -29.4441
1.504                  -0.143876       -29.60164
1.508                 -0.1469284       -29.76012
1.512                 -0.1500918       -29.91951
1.516                 -0.1533663       -30.07982
1.52                  -0.1567521       -30.24102
1.524                 -0.1602504       -30.40312
1.528                 -0.1638617       -30.56611
1.532                 -0.1675847       -30.72996
1.536                 -0.1714216        -30.8947
1.54                  -0.1753696       -31.06029
1.544                 -0.1794311       -31.22674
1.548                 -0.1836044       -31.39404
1.552                 -0.1878885       -31.56219
1.556                 -0.1922836       -31.73118
1.56                  -0.1967873         -31.901
1.564                  -0.201401       -32.07165
1.568                 -0.2061239       -32.24314
1.572                  -0.210952       -32.41545
1.576                 -0.2158868       -32.58859
1.58                  -0.2209263       -32.76256
1.584                 -0.2260682       -32.93736
1.588                 -0.2313127         -33.113
1.592                 -0.2366569       -33.28946
1.596                 -0.2421009       -33.46677
1.6                   -0.2476409       -33.64492
1.604                 -0.2532772       -33.82392
1.608                 -0.2590062       -34.00379
1.612                 -0.2648286       -34.18453
1.616                 -0.2707406       -34.36614
1.62                  -0.2767405       -34.54865
1.624                 -0.2828267       -34.73206
1.628                 -0.2889972        -34.9164
1.632                 -0.2952515       -35.10168
1.636                 -0.3015865       -35.28789
1.64                  -0.3080003        -35.4751
1.644                 -0.3144927       -35.66329
1.648                 -0.3210585        -35.8525
1.652                 -0.3277009       -36.04275
1.656                 -0.3344147       -36.23406
1.66                   -0.341199       -36.42648
1.664                  -0.348053          -36.62
1.668                 -0.3549778       -36.81468
1.672                 -0.3619663       -37.01054
1.676                 -0.3690228       -37.20762
1.68                  -0.3761438       -37.40593
1.684                 -0.3833288       -37.60554
1.688                 -0.3905775       -37.80647
1.692                 -0.3978892       -38.00875
1.696                 -0.4052627       -38.21244
1.7                   -0.4127001       -38.41757
1.704                 -0.4201998       -38.62418
1.708                 -0.4277616       -38.83231
1.712                  -0.435388       -39.04202
1.716                 -0.4430772       -39.25335
1.72                  -0.4508318       -39.46635
1.724                  -0.458654       -39.68107
1.728                 -0.4665414       -39.89755
1.732                 -0.4744996       -40.11585
1.736                 -0.4825282       -40.33602
1.74                  -0.4906307       -40.55812
1.744                   -0.49881        -40.7822
1.748                 -0.5070686       -41.00831
1.752                  -0.515407       -41.23651
1.756                 -0.5238318       -41.46685
1.76                  -0.5323461        -41.6994
1.764                 -0.5409538       -41.93422
1.768                 -0.5496577       -42.17134
1.772                 -0.5584657       -42.41086
1.776                 -0.5673796       -42.65281
1.78                  -0.5764065       -42.89726
1.784                 -0.5855522       -43.14427
1.788                 -0.5948224       -43.39389
1.792                 -0.6042231        -43.6462
1.796                  -0.613761       -43.90124
1.8                   -0.6234442       -44.15909
1.804                 -0.6332787       -44.41979
1.808                 -0.6432743       -44.68341
1.812                 -0.6534374       -44.95003
1.816                 -0.6637756       -45.21967
1.82                  -0.6743013       -45.49243
1.824                 -0.6850203       -45.76833
1.828                 -0.6959447       -46.04746
1.832                 -0.7070816       -46.32987
1.836                 -0.7184429       -46.61561
1.84                   -0.730038       -46.90473
1.844                 -0.7418797       -47.19731
1.848                 -0.7539782        -47.4934
1.852                 -0.7663433       -47.79303
1.856                 -0.7789896       -48.09629
1.86                   -0.791928       -48.40321
1.864                 -0.8051704       -48.71385
1.868                 -0.8187302       -49.02825
1.872                 -0.8326206       -49.34648
1.876                 -0.8468546       -49.66857
1.88                  -0.8614457       -49.99459
1.884                 -0.8764083       -50.32456
1.888                 -0.8917567       -50.65856
1.892                  -0.907505        -50.9966
1.896                 -0.9236673       -51.33876
1.9                   -0.9402601       -51.68506
1.904                 -0.9572974       -52.03553
1.908                 -0.9747957       -52.39024
1.912                 -0.9927709       -52.74922
1.916                  -1.011237        -53.1125
1.92                   -1.030213       -53.48012
1.924                  -1.049714       -53.85213
1.928                  -1.069756       -54.22854
1.932                  -1.090357       -54.60941
1.936                  -1.111534       -54.99475
1.94                   -1.133305       -55.38462
1.944                  -1.155687       -55.77903
1.948                  -1.178697       -56.17801
1.952                  -1.202354       -56.58161
1.956                  -1.226676       -56.98982
1.96                   -1.251682       -57.40271
1.964                  -1.277389       -57.82029
1.968                  -1.303816       -58.24256
1.972                  -1.330984       -58.66958
1.976                  -1.358911       -59.10137
1.98                   -1.387617       -59.53795
1.984                  -1.417121       -59.97932
1.988                  -1.447443       -60.42554
1.992                  -1.478602       -60.87661
1.996                   -1.51062       -61.33255
2                      -1.543516        -61.7934
2.004                  -1.577313       -62.25916
2.008                  -1.612028       -62.72986
2.012                  -1.647686       -63.20553
2.016                  -1.684305       -63.68617
2.02                    -1.72191       -64.17182
2.024                   -1.76052        -64.6625
2.028                  -1.800159       -65.15824
2.032                  -1.840846       -65.65903
2.036                  -1.882607       -66.16491
2.04                   -1.925463       -66.67591
2.044                  -1.969438       -67.19205
2.048                  -2.014556       -67.71334
2.052                  -2.060837       -68.23983
2.056                  -2.108309       -68.77153
2.06                   -2.156996       -69.30848
2.064                   -2.20692       -69.85069
2.068                  -2.258109        -70.3982
2.072                  -2.310585       -70.95104
2.076                  -2.364378       -71.50926
2.08                   -2.419509       -72.07288
2.084                  -2.476009       -72.64194
2.088                  -2.533904       -73.21647
2.092                  -2.593218       -73.79652
2.096                  -2.653984       -74.38213
2.1                    -2.716228       -74.97338
2.104                  -2.779978       -75.57027
2.108                  -2.845265        -76.1729
2.112                  -2.912119       -76.78128
2.116                   -2.98057       -77.39553
2.12                   -3.050649       -78.01566
2.124                  -3.122389       -78.64177
2.128                  -3.195824       -79.27394
2.132                  -3.270983       -79.91224
2.136                  -3.347904       -80.55674
2.14                   -3.426621       -81.20754
2.144                  -3.507168       -81.86476
2.148                  -3.589585       -82.52847
2.152                  -3.673907        -83.1988
2.156                  -3.760172       -83.87587
2.16                    -3.84842       -84.55979
2.164                  -3.938694       -85.25069
2.168                  -4.031033       -85.94875
2.172                   -4.12548        -86.6541
2.176                  -4.222079        -87.3669
2.18                   -4.320875       -88.08732
2.184                  -4.421916       -88.81555
2.188                  -4.525247       -89.55182
2.192                  -4.630921       -90.29631
2.196                  -4.738984       -91.04927
2.2                    -4.849491       -91.81095
2.204                  -4.962499       -92.58157
2.208                  -5.078055       -93.36146
2.212                  -5.196223       -94.15089
2.216                   -5.31706       -94.95018
2.22                   -5.440627        -95.7597
2.224                  -5.566984       -96.57981
2.228                  -5.696201       -97.41091
2.232                  -5.828341       -98.25341
2.236                  -5.963473       -99.10778
2.24                   -6.101669       -99.97451
2.244                     -6.243       -100.8541
2.248                  -6.387543       -101.7472
2.252                  -6.535376       -102.6543
2.256                  -6.686578       -103.5762
2.26                   -6.841233       -104.5135
2.264                  -6.999422        -105.467
2.268                  -7.161233       -106.4375
2.272                  -7.326755       -107.4259
2.276                   -7.49608       -108.4332
2.28                   -7.669297       -109.4603
2.284                  -7.846502       -110.5086
2.288                  -8.027791        -111.579
2.292                  -8.213258       -112.6731
2.296                     -8.403       -113.7921
2.3                    -8.597114       -114.9377
2.304                  -8.795695       -116.1115
2.308                  -8.998835       -117.3154
2.312                  -9.206623       -118.5513
2.316                  -9.419146       -119.8214
2.32                   -9.636482       -121.1281
2.324                  -9.858697       -122.4739
2.328                  -10.08585       -123.8616
2.332                  -10.31799       -125.2943
2.336                  -10.55514       -126.7752
2.34                   -10.79729       -128.3079
2.344                  -11.04442       -129.8963
2.348                  -11.29646       -131.5446
2.352                   -11.5533       -133.2575
2.356                  -11.81479       -135.0398
2.36                   -12.08069       -136.8968
2.364                  -12.35068       -138.8344
2.368                  -12.62437       -140.8586
2.372                  -12.90124       -142.9757
2.376                  -13.18063       -145.1927
2.38                   -13.46174       -147.5165
2.384                  -13.74358       -149.9543
2.388                  -14.02494       -152.5133
2.392                   -14.3044       -155.2005
2.396                  -14.58027       -158.0223
2.4                    -14.85057       -160.9845
2.404                  -15.11307       -164.0917