! TOUCHSTONE file generated by CST MICROWAVE STUDIO
! Date and time: Fri May  6 09:22:48 2022
! Project name: ant1_ceramic_sweep_10porcent.cst
! Parameters = {e=0.035; h=1.6; i=0.8; l1=0.5; l2=17; ls=80; wl=1.7; ws=30}
! Header version: 2018
! Port assignment regex: !\s*Touchstone port\s*([0-9]+)\s*=\s*(CST MWS port|CST DS port)\s*([0-9]+|Zmin|Zmax)\s*\(\"(.*)\"\)(\s*mode\s*([0-9]+))?.*
! Touchstone port assignment:
! Touchstone port 1 = CST MWS port 1 ("")
# GHz S DB R 50
0                  -0.0001159699              -0
0.004              -0.0001282665     -0.06016226
0.008              -0.0001677478      -0.1203165
0.012              -0.0002313155      -0.1804548
0.016              -0.0003220899      -0.2405691
0.02               -0.0004375013      -0.3006516
0.024              -0.0005786097      -0.3606945
0.028              -0.0007438914        -0.42069
0.032              -0.0009344167      -0.4806307
0.036               -0.001147118      -0.5405092
0.04                -0.001384112      -0.6003181
0.044               -0.001643892      -0.6600505
0.048               -0.001925995      -0.7196994
0.052               -0.002228924      -0.7792585
0.056               -0.002551704      -0.8387209
0.06                -0.002894917      -0.8980809
0.064               -0.003258112      -0.9573328
0.068               -0.003637217       -1.016471
0.072               -0.004035412       -1.075489
0.076               -0.004447592       -1.134384
0.08                -0.004875388        -1.19315
0.084               -0.005316805       -1.251784
0.088               -0.005771406       -1.310281
0.092               -0.006237197       -1.368638
0.096               -0.006713223       -1.426852
0.1                 -0.007198527        -1.48492
0.104               -0.007692671        -1.54284
0.108               -0.008191071       -1.600611
0.112               -0.008696394        -1.65823
0.116               -0.009205607       -1.715697
0.12                -0.009718786       -1.773012
0.124                -0.01023082       -1.830173
0.128                -0.01074436       -1.887182
0.132                -0.01125638        -1.94404
0.136                 -0.0117664       -2.000746
0.14                 -0.01227243       -2.057305
0.144                -0.01277192       -2.113716
0.148                -0.01326699       -2.169983
0.152                 -0.0137525       -2.226108
0.156                -0.01423007       -2.282096
0.16                 -0.01469711        -2.33795
0.164                -0.01515211       -2.393673
0.168                -0.01559614       -2.449272
0.172                -0.01602505       -2.504751
0.176                -0.01643939       -2.560114
0.18                  -0.0168376       -2.615368
0.184                -0.01721916        -2.67052
0.188                -0.01758356       -2.725575
0.192                -0.01792714        -2.78054
0.196                -0.01825196       -2.835423
0.2                   -0.0185554       -2.890231
0.204                -0.01883847       -2.944972
0.208                -0.01909801       -2.999653
0.212                -0.01933554       -3.054283
0.216                -0.01954841       -3.108871
0.22                 -0.01973811       -3.163424
0.224                -0.01990251       -3.217952
0.228                -0.02004256       -3.272465
0.232                -0.02015613       -3.326969
0.236                -0.02024466       -3.381477
0.24                 -0.02030704       -3.435997
0.244                -0.02034214       -3.490537
0.248                 -0.0203514       -3.545108
0.252                -0.02033524        -3.59972
0.256                -0.02029043       -3.654381
0.26                 -0.02022203       -3.709102
0.264                -0.02012629       -3.763892
0.268                -0.02000413        -3.81876
0.272                -0.01985696       -3.873717
0.276                -0.01968464       -3.928771
0.28                 -0.01948703       -3.983931
0.284                -0.01926608       -4.039207
0.288                -0.01901953       -4.094607
0.292                -0.01875193       -4.150141
0.296                -0.01846104       -4.205815
0.3                  -0.01814722        -4.26164
0.304                -0.01781343       -4.317622
0.308                -0.01746002        -4.37377
0.312                 -0.0170858       -4.430091
0.316                -0.01669578       -4.486592
0.32                 -0.01628619        -4.54328
0.324                -0.01586205       -4.600162
0.328                -0.01542214       -4.657244
0.332                -0.01496839       -4.714531
0.336                -0.01450169       -4.772028
0.34                 -0.01402445       -4.829742
0.344                -0.01353601       -4.887676
0.348                -0.01303776       -4.945836
0.352                -0.01253268       -5.004223
0.356                -0.01202112       -5.062842
0.36                 -0.01150399       -5.121697
0.364                 -0.0109832       -5.180789
0.368                -0.01046124        -5.24012
0.372               -0.009936931       -5.299691
0.376               -0.009414286       -5.359505
0.38                -0.008891624       -5.419562
0.384               -0.008373515       -5.479862
0.388               -0.007858287       -5.540404
0.392               -0.007349976       -5.601189
0.396               -0.006849025       -5.662215
0.4                   -0.0063574       -5.723481
0.404               -0.005874538       -5.784983
0.408               -0.005402918       -5.846721
0.412               -0.004944574       -5.908691
0.416               -0.004499449       -5.970889
0.42                -0.004069054       -6.033313
0.424               -0.003653836       -6.095959
0.428               -0.003258476       -6.158821
0.432                -0.00287932       -6.221894
0.436               -0.002520476       -6.285175
0.44                -0.002180414       -6.348656
0.444               -0.001864305       -6.412333
0.448               -0.001569076       -6.476199
0.452               -0.001297847       -6.540249
0.456               -0.001049627       -6.604474
0.46               -0.0008260312       -6.668867
0.464              -0.0006286274       -6.733424
0.468              -0.0004564694       -6.798135
0.472              -0.0003117174       -6.862992
0.476              -0.0001944189       -6.927989
0.48               -0.0001031317       -6.993116
0.484              -4.002527e-05       -7.058366
0.488              -6.736618e-06       -7.123732
0.492              -2.929163e-07       -7.189204
0.496              -2.339487e-05       -7.254774
0.5                -7.360513e-05       -7.320433
0.504              -0.0001536119       -7.386174
0.508              -0.0002625142       -7.451989
0.512              -0.0003984081       -7.517867
0.516              -0.0005635026       -7.583801
0.52               -0.0007574294       -7.649785
0.524              -0.0009788176       -7.715807
0.528               -0.001226746       -7.781861
0.532               -0.001501396       -7.847939
0.536               -0.001802936       -7.914033
0.54                 -0.00212995       -7.980137
0.544               -0.002482103       -8.046242
0.548               -0.002857991       -8.112341
0.552               -0.003258335       -8.178426
0.556               -0.003680641       -8.244494
0.56                -0.004123571       -8.310533
0.564               -0.004588266       -8.376543
0.568               -0.005072809       -8.442517
0.572               -0.005575784       -8.508448
0.576                -0.00609428       -8.574329
0.58                -0.006632522        -8.64016
0.584               -0.007183864       -8.705936
0.588               -0.007750527       -8.771653
0.592               -0.008327466       -8.837305
0.596               -0.008917851       -8.902893
0.6                 -0.009517665        -8.96841
0.604                -0.01012482        -9.03386
0.608                -0.01073997       -9.099237
0.612                -0.01136006        -9.16454
0.616                 -0.0119851       -9.229771
0.62                 -0.01261408        -9.29493
0.624                -0.01324287       -9.360016
0.628                 -0.0138715       -9.425029
0.632                -0.01449938       -9.489973
0.636                -0.01512344       -9.554846
0.64                 -0.01574404       -9.619657
0.644                -0.01635759       -9.684403
0.648                -0.01696447       -9.749091
0.652                -0.01756254       -9.813723
0.656                -0.01815012       -9.878304
0.66                 -0.01872605       -9.942839
0.664                -0.01928915       -10.00733
0.668                -0.01983819       -10.07179
0.672                -0.02037198       -10.13623
0.676                -0.02088824       -10.20064
0.68                 -0.02138779       -10.26504
0.684                -0.02186682       -10.32943
0.688                -0.02232554       -10.39382
0.692                -0.02276468       -10.45822
0.696                -0.02318048       -10.52264
0.7                  -0.02357303       -10.58709
0.704                -0.02394152       -10.65158
0.708                -0.02428623       -10.71611
0.712                -0.02460464        -10.7807
0.716                -0.02489593       -10.84536
0.72                 -0.02516127        -10.9101
0.724                -0.02539927       -10.97493
0.728                -0.02560901       -11.03986
0.732                -0.02579108        -11.1049
0.736                -0.02594411       -11.17007
0.74                 -0.02606811       -11.23537
0.744                 -0.0261637       -11.30082
0.748                -0.02622994       -11.36642
0.752                -0.02626688        -11.4322
0.756                -0.02627462       -11.49816
0.76                 -0.02625416       -11.56431
0.764                -0.02620515       -11.63067
0.768                -0.02612802       -11.69724
0.772                -0.02602344       -11.76405
0.776                -0.02589034        -11.8311
0.78                 -0.02573135       -11.89839
0.784                -0.02554606       -11.96596
0.788                -0.02533534       -12.03379
0.792                -0.02509999       -12.10192
0.796                -0.02484087       -12.17034
0.8                  -0.02455918       -12.23906
0.804                -0.02425649       -12.30811
0.808                -0.02393126       -12.37748
0.812                -0.02358719       -12.44718
0.816                -0.02322482       -12.51723
0.82                 -0.02284578       -12.58764
0.824                -0.02245123       -12.65841
0.828                -0.02204122       -12.72955
0.832                -0.02161779       -12.80106
0.836                -0.02118432       -12.87297
0.84                 -0.02073983       -12.94526
0.844                  -0.020287       -13.01795
0.848                -0.01982858       -13.09105
0.852                -0.01936317       -13.16456
0.856                -0.01889502       -13.23848
0.86                 -0.01842493       -13.31281
0.864                -0.01795357       -13.38757
0.868                -0.01748472       -13.46276
0.872                -0.01701868       -13.53837
0.876                -0.01655719       -13.61441
0.88                 -0.01610215       -13.69088
0.884                -0.01565638       -13.76779
0.888                -0.01522021       -13.84513
0.892                -0.01479494        -13.9229
0.896                -0.01438468        -14.0011
0.9                  -0.01398908       -14.07974
0.904                -0.01360972        -14.1588
0.908                -0.01324902       -14.23829
0.912                -0.01290946        -14.3182
0.916                -0.01259106       -14.39854
0.92                 -0.01229574       -14.47929
0.924                -0.01202555       -14.56046
0.928                -0.01178105       -14.64204
0.932                -0.01156437       -14.72401
0.936                -0.01137643       -14.80639
0.94                 -0.01121944       -14.88916
0.944                -0.01109303       -14.97232
0.948                -0.01100036       -15.05586
0.952                -0.01094101       -15.13976
0.956                -0.01091565       -15.22404
0.96                   -0.010928       -15.30867
0.964                -0.01097587       -15.39364
0.968                -0.01106168       -15.47897
0.972                -0.01118588       -15.56462
0.976                -0.01134924       -15.65059
0.98                 -0.01155225       -15.73689
0.984                 -0.0117949       -15.82349
0.988                -0.01207785       -15.91038
0.992                -0.01240296       -15.99756
0.996                -0.01276734       -16.08502
1                    -0.01317493       -16.17276
1.004                -0.01362259       -16.26074
1.008                -0.01411248       -16.34898
1.012                -0.01464327       -16.43746
1.016                -0.01521593       -16.52617
1.02                 -0.01582821        -16.6151
1.024                -0.01648111       -16.70426
1.028                -0.01717421       -16.79362
1.032                -0.01790716       -16.88315
1.036                -0.01867806       -16.97287
1.04                 -0.01948737       -17.06279
1.044                -0.02033421       -17.15286
1.048                -0.02121734        -17.2431
1.052                 -0.0221363       -17.33351
1.056                -0.02308953       -17.42407
1.06                 -0.02407605       -17.51475
1.064                -0.02509429       -17.60557
1.068                -0.02614431       -17.69654
1.072                -0.02722308        -17.7876
1.076                -0.02833042       -17.87883
1.08                 -0.02946384       -17.97013
1.084                -0.03062348       -18.06155
1.088                -0.03180741        -18.1531
1.092                -0.03301192       -18.24476
1.096                -0.03423752       -18.33648
1.1                   -0.0354813       -18.42836
1.104                -0.03674417       -18.52029
1.108                -0.03802082       -18.61237
1.112                -0.03931018       -18.70454
1.116                -0.04061201       -18.79678
1.12                 -0.04192428       -18.88915
1.124                -0.04324408       -18.98163
1.128                -0.04457084       -19.07422
1.132                -0.04590186       -19.16692
1.136                -0.04723465       -19.25975
1.14                 -0.04856849        -19.3527
1.144                -0.04990104       -19.44578
1.148                -0.05123046         -19.539
1.152                -0.05255599       -19.63237
1.156                -0.05387403       -19.72589
1.16                 -0.05518405       -19.81957
1.164                -0.05648512       -19.91343
1.168                -0.05777398       -20.00746
1.172                -0.05905034        -20.1017
1.176                 -0.0603109       -20.19613
1.18                 -0.06155599       -20.29079
1.184                -0.06278294       -20.38567
1.188                -0.06399165        -20.4808
1.192                -0.06517965       -20.57619
1.196                 -0.0663463       -20.67185
1.2                  -0.06749067       -20.76779
1.204                -0.06860986       -20.86404
1.208                 -0.0697065       -20.96061
1.212                -0.07077669       -21.05751
1.216                -0.07182117       -21.15477
1.22                 -0.07283823       -21.25239
1.224                 -0.0738283       -21.35041
1.228                -0.07479012       -21.44883
1.232                -0.07572279       -21.54767
1.236                -0.07662823       -21.64696
1.24                 -0.07750464       -21.74671
1.244                -0.07835193       -21.84695
1.248                -0.07917039       -21.94768
1.252                -0.07996057       -22.04894
1.256                -0.08072341       -22.15074
1.26                 -0.08145756       -22.25309
1.264                -0.08216506       -22.35603
1.268                -0.08284685       -22.45957
1.272                -0.08350154       -22.56373
1.276                -0.08413264       -22.66853
1.28                 -0.08473977       -22.77398
1.284                -0.08532425       -22.88012
1.288                -0.08588778       -22.98696
1.292                -0.08643088       -23.09451
1.296                -0.08695559        -23.2028
1.3                   -0.0874639       -23.31184
1.304                -0.08795637       -23.42166
1.308                -0.08843642       -23.53226
1.312                -0.08890493       -23.64368
1.316                -0.08936389       -23.75592
1.32                 -0.08981572         -23.869
1.324                -0.09026259       -23.98294
1.328                -0.09070605       -24.09775
1.332                -0.09114998       -24.21345
1.336                -0.09159562       -24.33006
1.34                 -0.09204574       -24.44758
1.344                -0.09250272       -24.56603
1.348                -0.09297006       -24.68543
1.352                   -0.09345       -24.80578
1.356                -0.09394495        -24.9271
1.36                  -0.0944587        -25.0494
1.364                -0.09499339       -25.17268
1.368                -0.09555076       -25.29696
1.372                -0.09613574       -25.42224
1.376                -0.09675146       -25.54854
1.38                 -0.09739832       -25.67586
1.384                 -0.0980834       -25.80421
1.388                -0.09880508       -25.93359
1.392                -0.09956936       -26.06401
1.396                 -0.1003782       -26.19547
1.4                   -0.1012346       -26.32797
1.404                 -0.1021429       -26.46152
1.408                 -0.1031049       -26.59613
1.412                 -0.1041225       -26.73179
1.416                 -0.1052008        -26.8685
1.42                  -0.1063423       -27.00626
1.424                 -0.1075481       -27.14508
1.428                 -0.1088226       -27.28494
1.432                 -0.1101687       -27.42586
1.436                  -0.111587       -27.56782
1.44                  -0.1130812       -27.71083
1.444                 -0.1146548       -27.85488
1.448                 -0.1163098       -27.99996
1.452                 -0.1180484       -28.14607
1.456                 -0.1198731       -28.29322
1.46                  -0.1217851       -28.44138
1.464                 -0.1237872       -28.59056
1.468                 -0.1258827       -28.74075
1.472                 -0.1280709       -28.89193
1.476                 -0.1303555       -29.04412
1.48                  -0.1327385       -29.19729
1.484                 -0.1352203       -29.35145
1.488                 -0.1378034       -29.50658
1.492                 -0.1404882       -29.66268
1.496                 -0.1432765       -29.81972
1.5                   -0.1461687       -29.97773
1.504                 -0.1491673       -30.13667
1.508                 -0.1522723       -30.29655
1.512                  -0.155485       -30.45736
1.516                 -0.1588041       -30.61909
1.52                   -0.162233       -30.78173
1.524                  -0.165771       -30.94527
1.528                 -0.1694175       -31.10972
1.532                 -0.1731749       -31.27506
1.536                 -0.1770404       -31.44128
1.54                   -0.181015       -31.60838
1.544                 -0.1851003       -31.77636
1.548                 -0.1892944       -31.94521
1.552                 -0.1935962       -32.11492
1.556                 -0.1980068        -32.2855
1.56                  -0.2025249       -32.45694
1.564                 -0.2071511       -32.62924
1.568                 -0.2118816       -32.80239
1.572                 -0.2167182        -32.9764
1.576                 -0.2216577       -33.15126
1.58                  -0.2267017       -33.32699
1.584                 -0.2318479       -33.50358
1.588                 -0.2370946       -33.68102
1.592                 -0.2424411       -33.85934
1.596                  -0.247885       -34.03853
1.6                   -0.2534269        -34.2186
1.604                 -0.2590633       -34.39956
1.608                 -0.2647929        -34.5814
1.612                 -0.2706166       -34.76416
1.616                 -0.2765299       -34.94783
1.62                  -0.2825323       -35.13243
1.624                 -0.2886242       -35.31797
1.628                 -0.2948021       -35.50448
1.632                 -0.3010648       -35.69195
1.636                 -0.3074092       -35.88041
1.64                  -0.3138357       -36.06988
1.644                 -0.3203435       -36.26039
1.648                 -0.3269307       -36.45195
1.652                 -0.3335942       -36.64458
1.656                 -0.3403339       -36.83831
1.66                  -0.3471493       -37.03317
1.664                   -0.35404       -37.22918
1.668                 -0.3610009       -37.42637
1.672                 -0.3680354       -37.62477
1.676                 -0.3751407       -37.82442
1.68                  -0.3823176       -38.02535
1.684                 -0.3895633       -38.22759
1.688                  -0.396878       -38.43117
1.692                 -0.4042634       -38.63614
1.696                 -0.4117192       -38.84253
1.7                   -0.4192426       -39.05038
1.704                 -0.4268358       -39.25973
1.708                    -0.4345       -39.47064
1.712                 -0.4422352       -39.68312
1.716                  -0.450043       -39.89724
1.72                  -0.4579223       -40.11305
1.724                 -0.4658764       -40.33057
1.728                 -0.4739066       -40.54988
1.732                 -0.4820138         -40.771
1.736                 -0.4902022       -40.99401
1.74                  -0.4984727       -41.21893
1.744                 -0.5068278       -41.44583
1.748                  -0.515271       -41.67474
1.752                 -0.5238057       -41.90576
1.756                 -0.5324353        -42.1389
1.76                  -0.5411617       -42.37422
1.764                 -0.5499922        -42.6118
1.768                  -0.558929       -42.85168
1.772                 -0.5679765       -43.09391
1.776                 -0.5771413       -43.33856
1.78                  -0.5864283       -43.58567
1.784                 -0.5958431       -43.83531
1.788                  -0.605391       -44.08754
1.792                 -0.6150793        -44.3424
1.796                 -0.6249135       -44.59997
1.8                    -0.634901       -44.86029
1.804                 -0.6450502       -45.12342
1.808                 -0.6553673       -45.38943
1.812                  -0.665861       -45.65836
1.816                 -0.6765396       -45.93028
1.82                  -0.6874118       -46.20525
1.824                 -0.6984839       -46.48331
1.828                 -0.7097699       -46.76452
1.832                 -0.7212756       -47.04894
1.836                 -0.7330123       -47.33663
1.84                    -0.74499       -47.62764
1.844                 -0.7572185       -47.92201
1.848                 -0.7697114       -48.21982
1.852                 -0.7824766        -48.5211
1.856                 -0.7955276       -48.82592
1.86                  -0.8088761       -49.13431
1.864                 -0.8225318       -49.44633
1.868                  -0.836509       -49.76202
1.872                 -0.8508215       -50.08146
1.876                 -0.8654794       -50.40466
1.88                  -0.8804978       -50.73168
1.884                 -0.8958904       -51.06258
1.888                 -0.9116688       -51.39737
1.892                 -0.9278502       -51.73613
1.896                  -0.944445       -52.07889
1.9                   -0.9614724       -52.42568
1.904                 -0.9789425       -52.77655
1.908                 -0.9968733       -53.13154
1.912                  -1.015279       -53.49069
1.916                  -1.034175       -53.85403
1.92                   -1.053579        -54.2216
1.924                  -1.073503       -54.59343
1.928                  -1.093967       -54.96956
1.932                  -1.114986       -55.35003
1.936                  -1.136576       -55.73486
1.94                   -1.158755       -56.12408
1.944                  -1.181537       -56.51772
1.948                  -1.204944       -56.91582
1.952                   -1.22899       -57.31841
1.956                  -1.253695       -57.72551
1.96                   -1.279074       -58.13714
1.964                  -1.305146       -58.55334
1.968                  -1.331932       -58.97413
1.972                  -1.359448       -59.39953
1.976                  -1.387712       -59.82957
1.98                   -1.416745       -60.26427
1.984                  -1.446563       -60.70364
1.988                  -1.477189       -61.14774
1.992                  -1.508638       -61.59654
1.996                  -1.540935        -62.0501
2                      -1.574095       -62.50844
2.004                  -1.608141       -62.97157
2.008                  -1.643092       -63.43949
2.012                   -1.67897       -63.91226
2.016                  -1.715792       -64.38987
2.02                   -1.753584       -64.87237
2.024                  -1.792364       -65.35976
2.028                  -1.832154       -65.85206
2.032                  -1.872975        -66.3493
2.036                   -1.91485        -66.8515
2.04                   -1.957801       -67.35868
2.044                  -2.001849       -67.87086
2.048                  -2.047018       -68.38807
2.052                  -2.093331       -68.91034
2.056                  -2.140812       -69.43768
2.06                   -2.189483       -69.97012
2.064                   -2.23937        -70.5077
2.068                  -2.290495       -71.05042
2.072                  -2.342884       -71.59837
2.076                  -2.396561       -72.15152
2.08                   -2.451554       -72.70994
2.084                  -2.507885       -73.27365
2.088                  -2.565582       -73.84269
2.092                  -2.624673        -74.4171
2.096                  -2.685184       -74.99694
2.1                    -2.747142       -75.58224
2.104                  -2.810576       -76.17304
2.108                  -2.875517       -76.76941
2.112                  -2.941988       -77.37139
2.116                  -3.010023       -77.97905
2.12                   -3.079653       -78.59245
2.124                  -3.150906       -79.21165
2.128                  -3.223818       -79.83672
2.132                  -3.298417       -80.46775
2.136                  -3.374738       -81.10482
2.14                   -3.452815       -81.74799
2.144                  -3.532683       -82.39736
2.148                  -3.614377       -83.05306
2.152                  -3.697932       -83.71515
2.156                  -3.783387       -84.38379
2.16                   -3.870779       -85.05905
2.164                  -3.960149       -85.74107
2.168                  -4.051538       -86.43002
2.172                  -4.144983       -87.12598
2.176                  -4.240529       -87.82919
2.18                    -4.33822       -88.53974
2.184                  -4.438101       -89.25784
2.188                  -4.540217       -89.98367
2.192                  -4.644617       -90.71743
2.196                  -4.751348       -91.45934
2.2                    -4.860462       -92.20964
2.204                   -4.97201       -92.96856
2.208                  -5.086045       -93.73638
2.212                  -5.202625       -94.51335
2.216                  -5.321803       -95.29981
2.22                    -5.44364       -96.09604
2.224                  -5.568196       -96.90244
2.228                  -5.695532       -97.71933
2.232                  -5.825714       -98.54715
2.236                  -5.958809       -99.38628
2.24                   -6.094882       -100.2372
2.244                  -6.234006       -101.1005
2.248                  -6.376254       -101.9765
2.252                    -6.5217       -102.8659
2.256                  -6.670422       -103.7694
2.26                   -6.822498       -104.6875
2.264                  -6.978011       -105.6209
2.268                  -7.137044       -106.5705
2.272                  -7.299683        -107.537
2.276                  -7.466015       -108.5214
2.28                   -7.636133       -109.5245
2.284                  -7.810126       -110.5475
2.288                  -7.988088       -111.5915
2.292                  -8.170114       -112.6577
2.296                  -8.356297       -113.7473
2.3                    -8.546736       -114.8619
2.304                  -8.741524       -116.0029
2.308                  -8.940754       -117.1722
2.312                  -9.144521       -118.3714
2.316                   -9.35291       -119.6025
2.32                   -9.566009       -120.8678
2.324                  -9.783889       -122.1696
2.328                  -10.00663       -123.5104
2.332                  -10.23427        -124.893
2.336                  -10.46686       -126.3204
2.34                   -10.70443       -127.7959
2.344                  -10.94697       -129.3231
2.348                  -11.19445       -130.9059
2.352                   -11.4468       -132.5485
2.356                  -11.70392       -134.2554
2.36                   -11.96563       -136.0316
2.364                  -12.23171       -137.8823
2.368                  -12.50185       -139.8132
2.372                  -12.77564       -141.8304
2.376                  -13.05255       -143.9403
2.38                   -13.33195       -146.1497
2.384                  -13.61302       -148.4655
2.388                  -13.89478       -150.8947
2.392                  -14.17602       -153.4447
2.396                  -14.45533       -156.1221
2.4                    -14.73102       -158.9336
2.404                  -15.00115       -161.8848