! TOUCHSTONE file generated by CST MICROWAVE STUDIO
! Date and time: Fri May  6 09:22:50 2022
! Project name: ant1_ceramic_sweep_10porcent.cst
! Parameters = {e=0.035; h=1.6; i=0.8; l1=0.505; l2=17; ls=80; wl=1.7; ws=30}
! Header version: 2018
! Port assignment regex: !\s*Touchstone port\s*([0-9]+)\s*=\s*(CST MWS port|CST DS port)\s*([0-9]+|Zmin|Zmax)\s*\(\"(.*)\"\)(\s*mode\s*([0-9]+))?.*
! Touchstone port assignment:
! Touchstone port 1 = CST MWS port 1 ("")
# GHz S DB R 50
0                  -0.0001128636              -0
0.004              -0.0001261915     -0.06018829
0.008              -0.0001646248      -0.1203686
0.012              -0.0002286894      -0.1805331
0.016              -0.0003189168      -0.2406738
0.02               -0.0004337726      -0.3007829
0.024               -0.000573281      -0.3608527
0.028              -0.0007374717      -0.4208754
0.032               -0.000925861      -0.4808437
0.036               -0.001137971      -0.5407502
0.04                -0.001373845      -0.6005877
0.044                -0.00163146      -0.6603492
0.048               -0.001910869      -0.7200278
0.052               -0.002211612      -0.7796171
0.056               -0.002533229      -0.8391106
0.06                -0.002873715      -0.8985024
0.064               -0.003234171      -0.9577867
0.068                -0.00361156       -1.016958
0.072               -0.004005953       -1.076011
0.076               -0.004415871       -1.134941
0.08                -0.004840874       -1.193743
0.084               -0.005279484       -1.252413
0.088               -0.005729707       -1.310949
0.092               -0.006192659       -1.369345
0.096               -0.006665311       -1.427599
0.1                 -0.007147226       -1.485708
0.104               -0.007637444       -1.543671
0.108               -0.008133453       -1.601485
0.112               -0.008635851       -1.659149
0.116               -0.009141082       -1.716661
0.12                -0.009648704       -1.774023
0.124                -0.01015879       -1.831232
0.128                -0.01066777       -1.888291
0.132                -0.01117676       -1.945198
0.136                -0.01168218       -2.001957
0.14                 -0.01218514       -2.058568
0.144                -0.01268205       -2.115033
0.148                -0.01317297       -2.171355
0.152                -0.01365535       -2.227537
0.156                -0.01412974       -2.283582
0.16                 -0.01459256       -2.339495
0.164                -0.01504487       -2.395278
0.168                -0.01548514       -2.450938
0.172                -0.01591079       -2.506478
0.176                -0.01632288       -2.561905
0.18                 -0.01671726       -2.617223
0.184                -0.01709601        -2.67244
0.188                -0.01745652       -2.727561
0.192                -0.01779827       -2.782593
0.196                -0.01812019       -2.837544
0.2                  -0.01842175       -2.892421
0.204                -0.01870136       -2.947231
0.208                   -0.01896       -3.001982
0.212                -0.01919401       -3.056683
0.216                -0.01940697       -3.111342
0.22                 -0.01959362       -3.165968
0.224                 -0.0197565       -3.220569
0.228                -0.01989553       -3.275155
0.232                -0.02000752       -3.329734
0.236                -0.02009447       -3.384315
0.24                 -0.02015627        -3.43891
0.244                -0.02019128       -3.493525
0.248                -0.02019992       -3.548171
0.252                 -0.0201831       -3.602858
0.256                -0.02013917       -3.657596
0.26                 -0.02006956       -3.712391
0.264                -0.01997518       -3.767258
0.268                -0.01985279       -3.822202
0.272                -0.01970642       -3.877234
0.276                -0.01953384       -3.932363
0.28                 -0.01933855       -3.987599
0.284                -0.01911729       -4.042949
0.288                -0.01887354       -4.098424
0.292                -0.01860663       -4.154032
0.296                -0.01831694        -4.20978
0.3                  -0.01800534       -4.265678
0.304                -0.01767323       -4.321733
0.308                -0.01732148       -4.377954
0.312                -0.01695046       -4.434346
0.316                -0.01656106       -4.490918
0.32                 -0.01615568       -4.547677
0.324                -0.01573314       -4.604628
0.328                -0.01529587       -4.661778
0.332                -0.01484578       -4.719133
0.336                 -0.0143822       -4.776697
0.34                 -0.01390755       -4.834479
0.344                 -0.0134217       -4.892477
0.348                 -0.0129281       -4.950701
0.352                -0.01242507       -5.009151
0.356                -0.01191711       -5.067833
0.36                 -0.01140409       -5.126748
0.364                -0.01088793         -5.1859
0.368                -0.01036798        -5.24529
0.372                -0.00984828       -5.304919
0.376               -0.009328154        -5.36479
0.38                -0.008810096       -5.424902
0.384               -0.008295014       -5.485257
0.388                -0.00778488       -5.545854
0.392               -0.007281171        -5.60669
0.396               -0.006782718       -5.667767
0.4                 -0.006294132       -5.729082
0.404               -0.005814798       -5.790633
0.408               -0.005347748       -5.852419
0.412               -0.004892945       -5.914435
0.416               -0.004450833       -5.976679
0.42                -0.004024483       -6.039147
0.424               -0.003613332       -6.101836
0.428                -0.00321994        -6.16474
0.432               -0.002845344       -6.227855
0.436               -0.002488997       -6.291176
0.44                -0.002152466       -6.354696
0.444               -0.001838849       -6.418412
0.448               -0.001547147       -6.482316
0.452               -0.001277886       -6.546402
0.456               -0.001032676       -6.610663
0.46               -0.0008125818       -6.675093
0.464              -0.0006166455       -6.739683
0.468              -0.0004474908       -6.804428
0.472              -0.0003046921       -6.869318
0.476              -0.0001878068       -6.934347
0.48               -0.0001000185       -6.999508
0.484              -3.834218e-05       -7.064789
0.488               -5.45125e-06       -7.130186
0.492               -4.36403e-07       -7.195688
0.496              -2.442501e-05        -7.26129
0.5                -7.602316e-05        -7.32698
0.504              -0.0001563953        -7.39275
0.508              -0.0002661816       -7.458594
0.512              -0.0004024178       -7.524502
0.516              -0.0005678434       -7.590467
0.52               -0.0007615424       -7.656482
0.524              -0.0009821956       -7.722533
0.528               -0.001229874       -7.788619
0.532                -0.00150428       -7.854727
0.536               -0.001805565       -7.920852
0.54                -0.002130207       -7.986987
0.544               -0.002482048       -8.053123
0.548               -0.002856586       -8.119254
0.552                -0.00325449       -8.185372
0.556               -0.003675388       -8.251472
0.56                -0.004117887       -8.317548
0.564               -0.004580069       -8.383592
0.568               -0.005061538       -8.449601
0.572                -0.00556249       -8.515568
0.576                -0.00608045       -8.581487
0.58                 -0.00661448       -8.647356
0.584               -0.007162623       -8.713171
0.588               -0.007726605       -8.778927
0.592                -0.00830077       -8.844621
0.596               -0.008888348       -8.910251
0.6                 -0.009483746       -8.975812
0.604                 -0.0100886       -9.041304
0.608                -0.01069975       -9.106728
0.612                -0.01131686       -9.172079
0.616                -0.01193888       -9.237359
0.62                 -0.01256222       -9.302565
0.624                -0.01318842       -9.367702
0.628                -0.01381332       -9.432768
0.632                -0.01443696       -9.497765
0.636                -0.01505718       -9.562695
0.64                 -0.01567343       -9.627561
0.644                -0.01628308       -9.692365
0.648                -0.01688598       -9.757112
0.652                -0.01748054       -9.821805
0.656                -0.01806354       -9.886448
0.66                 -0.01863532       -9.951047
0.664                -0.01919472       -10.01561
0.668                -0.01973951       -10.08013
0.672                   -0.02027       -10.14464
0.676                -0.02078244       -10.20911
0.68                 -0.02127805       -10.27358
0.684                -0.02175361       -10.33804
0.688                -0.02220926       -10.40251
0.692                -0.02264435       -10.46699
0.696                -0.02305645       -10.53149
0.7                  -0.02344684       -10.59601
0.704                -0.02381159       -10.66058
0.708                -0.02415191       -10.72519
0.712                -0.02446854       -10.78986
0.716                -0.02475685       -10.85461
0.72                 -0.02501978       -10.91943
0.724                -0.02525579       -10.98434
0.728                -0.02546343       -11.04936
0.732                -0.02564236       -11.11449
0.736                -0.02579318       -11.17974
0.74                 -0.02591545       -11.24513
0.744                -0.02600986       -11.31066
0.748                -0.02607427       -11.37636
0.752                -0.02611042       -11.44222
0.756                -0.02611775       -11.50827
0.76                 -0.02609638       -11.57452
0.764                 -0.0260469       -11.64097
0.768                -0.02596877       -11.70764
0.772                 -0.0258631       -11.77453
0.776                -0.02573145       -11.84167
0.78                 -0.02557237       -11.90907
0.784                -0.02538635       -11.97672
0.788                -0.02517704       -12.04465
0.792                -0.02494244       -12.11287
0.796                -0.02468516       -12.18138
0.8                  -0.02440469        -12.2502
0.804                -0.02410217       -12.31934
0.808                -0.02377968        -12.3888
0.812                -0.02343782        -12.4586
0.816                 -0.0230781       -12.52874
0.82                  -0.0227007       -12.59924
0.824                -0.02230772        -12.6701
0.828                 -0.0219013       -12.74133
0.832                -0.02148104       -12.81294
0.836                -0.02104962       -12.88493
0.84                 -0.02060921       -12.95732
0.844                -0.02015994        -13.0301
0.848                -0.01970406       -13.10328
0.852                -0.01924265       -13.17688
0.856                -0.01877754       -13.25088
0.86                 -0.01831097        -13.3253
0.864                -0.01784518       -13.40015
0.868                -0.01737981       -13.47542
0.872                -0.01691736       -13.55111
0.876                -0.01646092       -13.62723
0.88                 -0.01601037       -13.70379
0.884                -0.01556858       -13.78077
0.888                -0.01513697       -13.85819
0.892                -0.01471727       -13.93604
0.896                 -0.0143115       -14.01431
0.9                  -0.01391996       -14.09302
0.904                -0.01354621       -14.17216
0.908                -0.01319051       -14.25172
0.912                -0.01285548       -14.33171
0.916                -0.01254162       -14.41211
0.92                 -0.01225187       -14.49294
0.924                -0.01198579       -14.57417
0.928                -0.01174634       -14.65581
0.932                -0.01153415       -14.73786
0.936                -0.01135135        -14.8203
0.94                 -0.01119853       -14.90313
0.944                -0.01107719       -14.98635
0.948                -0.01098911       -15.06995
0.952                -0.01093381       -15.15392
0.956                -0.01091316       -15.23824
0.96                 -0.01092912       -15.32293
0.964                -0.01098149       -15.40797
0.968                -0.01107033       -15.49335
0.972                -0.01119866       -15.57906
0.976                -0.01136547       -15.66509
0.98                 -0.01157167       -15.75143
0.984                -0.01181834       -15.83808
0.988                -0.01210435       -15.92503
0.992                -0.01243205       -16.01226
0.996                -0.01279992       -16.09978
1                    -0.01320954       -16.18756
1.004                -0.01366004        -16.2756
1.008                -0.01415191       -16.36388
1.012                -0.01468519       -16.45241
1.016                -0.01525819       -16.54117
1.02                 -0.01587292       -16.63015
1.024                -0.01652679       -16.71936
1.028                -0.01722111       -16.80876
1.032                -0.01795454       -16.89834
1.036                 -0.0187264       -16.98812
1.04                 -0.01953671       -17.07808
1.044                -0.02038394       -17.16822
1.048                -0.02126743       -17.25851
1.052                -0.02218631       -17.34897
1.056                -0.02313779       -17.43957
1.06                  -0.0241236        -17.5303
1.064                -0.02514231        -17.6212
1.068                -0.02619018        -17.7122
1.072                -0.02726786       -17.80334
1.076                -0.02837349       -17.89459
1.08                 -0.02950547       -17.98595
1.084                -0.03066383       -18.07745
1.088                -0.03184442       -18.16903
1.092                -0.03304675       -18.26075
1.096                -0.03426972       -18.35257
1.1                  -0.03551157       -18.44448
1.104                -0.03676976        -18.5365
1.108                -0.03804375       -18.62862
1.112                -0.03933026       -18.72086
1.116                -0.04062894       -18.81317
1.12                 -0.04193724       -18.90565
1.124                -0.04325337       -18.99816
1.128                -0.04457626       -19.09084
1.132                -0.04590305       -19.18362
1.136                -0.04723174       -19.27653
1.14                 -0.04856208       -19.36956
1.144                 -0.0498896       -19.46272
1.148                -0.05121476       -19.55603
1.152                -0.05253597       -19.64948
1.156                -0.05385063       -19.74309
1.16                  -0.0551553       -19.83686
1.164                -0.05645205       -19.93081
1.168                -0.05773594       -20.02495
1.172                -0.05900759       -20.11928
1.176                -0.06026418       -20.21382
1.18                 -0.06150386       -20.30857
1.184                -0.06272711       -20.40356
1.188                -0.06393157        -20.4988
1.192                -0.06511497       -20.59429
1.196                -0.06627745       -20.69006
1.2                  -0.06741681       -20.78612
1.204                -0.06853355       -20.88249
1.208                -0.06962475       -20.97917
1.212                -0.07069156        -21.0762
1.216                -0.07173248       -21.17358
1.22                 -0.07274534       -21.27133
1.224                -0.07373131       -21.36947
1.228                -0.07469059       -21.46802
1.232                -0.07562045         -21.567
1.236                -0.07652221       -21.66642
1.24                   -0.077396       -21.76631
1.244                -0.07824106       -21.86668
1.248                -0.07905759       -21.96756
1.252                -0.07984661       -22.06896
1.256                 -0.0806071        -22.1709
1.26                 -0.08133987        -22.2734
1.264                -0.08204627       -22.37648
1.268                -0.08272617       -22.48017
1.272                -0.08338146       -22.58448
1.276                -0.08401198       -22.68943
1.28                 -0.08461781       -22.79504
1.284                -0.08520339       -22.90133
1.288                -0.08576742       -23.00832
1.292                -0.08631117       -23.11603
1.296                -0.08683707       -23.22448
1.3                  -0.08734703       -23.33368
1.304                -0.08784197       -23.44365
1.308                -0.08832388       -23.55442
1.312                -0.08879484         -23.666
1.316                -0.08925644        -23.7784
1.32                 -0.08971134       -23.89164
1.324                -0.09016187       -24.00575
1.328                -0.09060906       -24.12072
1.332                -0.09105751       -24.23659
1.336                -0.09150716       -24.35336
1.34                 -0.09196219       -24.47105
1.344                 -0.0924246       -24.58967
1.348                -0.09289748       -24.70923
1.352                -0.09338264       -24.82974
1.356                -0.09388466       -24.95123
1.36                 -0.09440351       -25.07369
1.364                -0.09494363       -25.19714
1.368                -0.09550919       -25.32158
1.372                -0.09610101       -25.44703
1.376                -0.09672444       -25.57349
1.38                 -0.09737965       -25.70098
1.384                -0.09807127       -25.82949
1.388                -0.09880247       -25.95903
1.392                -0.09957538       -26.08961
1.396                  -0.100392       -26.22123
1.4                   -0.1012589        -26.3539
1.404                 -0.1021756       -26.48761
1.408                 -0.1031469       -26.62237
1.412                  -0.104175       -26.75819
1.416                 -0.1052628       -26.89505
1.42                  -0.1064129       -27.03297
1.424                 -0.1076291       -27.17194
1.428                 -0.1089138       -27.31196
1.432                 -0.1102703       -27.45304
1.436                 -0.1116986       -27.59515
1.44                  -0.1132035       -27.73831
1.444                 -0.1147883       -27.88251
1.448                 -0.1164537       -28.02774
1.452                 -0.1182024         -28.174
1.456                 -0.1200374       -28.32129
1.46                  -0.1219606        -28.4696
1.464                  -0.123974       -28.61893
1.468                  -0.126079       -28.76926
1.472                 -0.1282786       -28.92059
1.476                 -0.1305747       -29.07292
1.48                  -0.1329674       -29.22624
1.484                 -0.1354586       -29.38053
1.488                  -0.138053       -29.53581
1.492                  -0.140748       -29.69204
1.496                 -0.1435462       -29.84923
1.5                   -0.1464492       -30.00738
1.504                 -0.1494579       -30.16646
1.508                 -0.1525722       -30.32649
1.512                 -0.1557942       -30.48743
1.516                 -0.1591233        -30.6493
1.52                  -0.1625619       -30.81208
1.524                  -0.166108       -30.97577
1.528                 -0.1697641       -31.14034
1.532                   -0.17353       -31.30582
1.536                 -0.1774035       -31.47218
1.54                  -0.1813888       -31.63944
1.544                 -0.1854809       -31.80755
1.548                 -0.1896835       -31.97655
1.552                 -0.1939928        -32.1464
1.556                 -0.1984119       -32.31713
1.56                  -0.2029374       -32.48872
1.564                 -0.2075683       -32.66116
1.568                 -0.2123068       -32.83446
1.572                 -0.2171496       -33.00862
1.576                 -0.2220968       -33.18365
1.58                  -0.2271456       -33.35952
1.584                 -0.2322973       -33.53627
1.588                 -0.2375495       -33.71388
1.592                 -0.2429009       -33.89235
1.596                 -0.2483501       -34.07171
1.6                   -0.2538973       -34.25194
1.604                 -0.2595386       -34.43307
1.608                 -0.2652734       -34.61509
1.612                 -0.2710999       -34.79802
1.616                 -0.2770179       -34.98187
1.62                  -0.2830253       -35.16666
1.624                 -0.2891204       -35.35239
1.628                 -0.2953013       -35.53908
1.632                  -0.301566       -35.72675
1.636                 -0.3079151       -35.91541
1.64                  -0.3143457       -36.10509
1.644                 -0.3208556        -36.2958
1.648                 -0.3274443       -36.48757
1.652                 -0.3341125       -36.68042
1.656                 -0.3408547       -36.87437
1.66                  -0.3476719       -37.06945
1.664                 -0.3545647        -37.2657
1.668                 -0.3615293       -37.46313
1.672                 -0.3685671       -37.66178
1.676                 -0.3756752       -37.86167
1.68                  -0.3828544       -38.06285
1.684                 -0.3901032       -38.26535
1.688                 -0.3974215       -38.46919
1.692                 -0.4048098       -38.67443
1.696                 -0.4122681        -38.8811
1.7                    -0.419795       -39.08923
1.704                 -0.4273924       -39.29888
1.708                 -0.4350608       -39.51007
1.712                 -0.4427993       -39.72287
1.716                 -0.4506117        -39.9373
1.72                  -0.4584968       -40.15342
1.724                 -0.4664561       -40.37128
1.728                 -0.4744927        -40.5909
1.732                 -0.4826067       -40.81237
1.736                 -0.4908011       -41.03571
1.74                  -0.4990798       -41.26099
1.744                 -0.5074429       -41.48824
1.748                 -0.5158936       -41.71752
1.752                 -0.5244368        -41.9489
1.756                 -0.5330767       -42.18243
1.76                  -0.5418143       -42.41813
1.764                 -0.5506554       -42.65611
1.768                 -0.5596037       -42.89638
1.772                 -0.5686648       -43.13902
1.776                 -0.5778437       -43.38408
1.78                  -0.5871452       -43.63161
1.784                 -0.5965742       -43.88168
1.788                  -0.606139       -44.13434
1.792                 -0.6158447       -44.38965
1.796                 -0.6256979       -44.64767
1.8                   -0.6357051       -44.90844
1.804                 -0.6458739       -45.17204
1.808                 -0.6562121       -45.43851
1.812                 -0.6667284       -45.70792
1.816                   -0.67743       -45.98033
1.82                  -0.6883262       -46.25578
1.824                 -0.6994272       -46.53433
1.828                 -0.7107388       -46.81604
1.832                 -0.7222748       -47.10098
1.836                 -0.7340403       -47.38917
1.84                  -0.7460499        -47.6807
1.844                 -0.7583127       -47.97561
1.848                 -0.7708378       -48.27394
1.852                 -0.7836397       -48.57576
1.856                 -0.7967273       -48.88112
1.86                  -0.8101129       -49.19005
1.864                 -0.8238089       -49.50263
1.868                 -0.8378291       -49.81889
1.872                 -0.8521835       -50.13888
1.876                 -0.8668868       -50.46265
1.88                  -0.8819516       -50.79025
1.884                 -0.8973913       -51.12172
1.888                 -0.9132209       -51.45711
1.892                 -0.9294522       -51.79646
1.896                 -0.9461007        -52.1398
1.9                   -0.9631812        -52.4872
1.904                 -0.9807089       -52.83867
1.908                 -0.9986978       -53.19427
1.912                  -1.017163       -53.55402
1.916                  -1.036121       -53.91797
1.92                   -1.055587       -54.28616
1.924                  -1.075578       -54.65862
1.928                  -1.096108       -55.03538
1.932                  -1.117195       -55.41647
1.936                  -1.138856       -55.80194
1.94                   -1.161109       -56.19181
1.944                  -1.183965       -56.58609
1.948                  -1.207449       -56.98485
1.952                  -1.231573       -57.38808
1.956                  -1.256358       -57.79584
1.96                    -1.28182       -58.20814
1.964                  -1.307977       -58.62498
1.968                  -1.334849       -59.04645
1.972                  -1.362452       -59.47251
1.976                  -1.390807       -59.90322
1.98                   -1.419931       -60.33858
1.984                  -1.449845       -60.77865
1.988                  -1.480567       -61.22342
1.992                  -1.512116       -61.67293
1.996                  -1.544513       -62.12718
2                      -1.577777       -62.58621
2.004                  -1.611927       -63.05002
2.008                  -1.646986       -63.51866
2.012                  -1.682971       -63.99213
2.016                  -1.719908       -64.47046
2.02                   -1.757812       -64.95366
2.024                  -1.796708       -65.44177
2.028                  -1.836616        -65.9348
2.032                  -1.877558       -66.43278
2.036                  -1.919556        -66.9357
2.04                   -1.962633       -67.44362
2.044                  -2.006808       -67.95654
2.048                  -2.052109       -68.47451
2.052                  -2.098555       -68.99751
2.056                  -2.146171       -69.52562
2.06                    -2.19498       -70.05884
2.064                  -2.245007        -70.5972
2.068                  -2.296275       -71.14072
2.072                  -2.348809       -71.68943
2.076                  -2.402637       -72.24338
2.08                   -2.457778        -72.8026
2.084                  -2.514264       -73.36712
2.088                   -2.57212       -73.93698
2.092                  -2.631369       -74.51224
2.096                  -2.692043        -75.0929
2.1                    -2.754168       -75.67904
2.104                   -2.81777       -76.27071
2.108                  -2.882881       -76.86794
2.112                  -2.949527        -77.4708
2.116                  -3.017741       -78.07937
2.12                   -3.087552       -78.69367
2.124                  -3.158991       -79.31378
2.128                  -3.232089       -79.93979
2.132                  -3.306881       -80.57176
2.136                  -3.383398       -81.20978
2.14                   -3.461674       -81.85395
2.144                  -3.541745       -82.50432
2.148                  -3.623646       -83.16103
2.152                  -3.707411       -83.82416
2.156                  -3.793082       -84.49385
2.16                   -3.880694        -85.1702
2.164                  -3.970287       -85.85333
2.168                  -4.061902       -86.54338
2.172                  -4.155578       -87.24051
2.176                  -4.251362       -87.94487
2.18                   -4.349295       -88.65663
2.184                  -4.449421       -89.37597
2.188                  -4.551788       -90.10307
2.192                  -4.656444       -90.83814
2.196                  -4.763438        -91.5814
2.2                    -4.872817       -92.33306
2.204                  -4.984638       -93.09338
2.208                  -5.098952       -93.86267
2.212                  -5.215815       -94.64115
2.216                  -5.335282       -95.42915
2.22                   -5.457417       -96.22699
2.224                  -5.582274       -97.03506
2.228                  -5.709919       -97.85367
2.232                  -5.840416       -98.68325
2.236                  -5.973832       -99.52425
2.24                   -6.110235       -100.3771
2.244                  -6.249696       -101.2423
2.248                  -6.392288       -102.1204
2.252                  -6.538084        -103.012
2.256                  -6.687164       -103.9177
2.26                   -6.839606       -104.8381
2.264                  -6.995493        -105.774
2.268                  -7.154907       -106.7262
2.272                  -7.317937       -107.6954
2.276                  -7.484668       -108.6825
2.28                    -7.65519       -109.6887
2.284                  -7.829598       -110.7148
2.288                   -8.00798        -111.762
2.292                  -8.190435       -112.8316
2.296                  -8.377055       -113.9248
2.3                    -8.567937       -115.0432
2.304                  -8.763174       -116.1883
2.308                  -8.962861       -117.3618
2.312                  -9.167087       -118.5655
2.316                  -9.375943       -119.8015
2.32                   -9.589507       -121.0719
2.324                  -9.807858        -122.379
2.328                  -10.03106       -123.7255
2.332                  -10.25917       -125.1142
2.336                  -10.49222       -126.5482
2.34                   -10.73023       -128.0306
2.344                  -10.97321       -129.5653
2.348                   -11.2211       -131.1559
2.352                  -11.47384       -132.8069
2.356                  -11.73132       -134.5228
2.36                   -11.99335       -136.3086
2.364                   -12.2597       -138.1695
2.368                  -12.53003       -140.1114
2.372                  -12.80394       -142.1402
2.376                  -13.08089       -144.2625
2.38                    -13.3602        -146.485
2.384                  -13.64106       -148.8146
2.388                  -13.92243       -151.2585
2.392                  -14.20312       -153.8237
2.396                  -14.48165       -156.5171
2.4                    -14.75632        -159.345
2.404                  -15.02514       -162.3129