! TOUCHSTONE file generated by CST MICROWAVE STUDIO
! Date and time: Fri May  6 09:22:52 2022
! Project name: ant1_ceramic_sweep_10porcent.cst
! Parameters = {e=0.035; h=1.6; i=0.8; l1=0.5; l2=17; ls=72; wl=1.7; ws=30}
! Header version: 2018
! Port assignment regex: !\s*Touchstone port\s*([0-9]+)\s*=\s*(CST MWS port|CST DS port)\s*([0-9]+|Zmin|Zmax)\s*\(\"(.*)\"\)(\s*mode\s*([0-9]+))?.*
! Touchstone port assignment:
! Touchstone port 1 = CST MWS port 1 ("")
# GHz S DB R 50
0                  -0.0001832746              -0
0.004              -0.0001970909     -0.06037348
0.008              -0.0002375071      -0.1207384
0.012              -0.0003066032      -0.1810863
0.016              -0.0004023228      -0.2414087
0.02                -0.000525722      -0.3016971
0.024              -0.0006747559      -0.3619433
0.028              -0.0008504919      -0.4221391
0.032               -0.001051931      -0.4822764
0.036               -0.001279117      -0.5423472
0.04                -0.001530542       -0.602344
0.044                -0.00180626      -0.6622592
0.048               -0.002105292      -0.7220854
0.052               -0.002426662      -0.7818155
0.056               -0.002771472      -0.8414429
0.06                 -0.00313513      -0.9009609
0.064               -0.003520816      -0.9603635
0.068               -0.003923942       -1.019644
0.072               -0.004346142       -1.078798
0.076               -0.004784906        -1.13782
0.08                 -0.00523876       -1.196704
0.084               -0.005707272       -1.255447
0.088               -0.006191045       -1.314044
0.092               -0.006685501       -1.372491
0.096               -0.007191762       -1.430786
0.1                 -0.007707324       -1.488925
0.104               -0.008230718       -1.546906
0.108               -0.008761509       -1.604727
0.112               -0.009299262       -1.662386
0.116               -0.009839395       -1.719883
0.12                 -0.01038406       -1.777216
0.124                -0.01092971       -1.834386
0.128                -0.01147485       -1.891392
0.132                -0.01201957       -1.948236
0.136                -0.01256082       -2.004919
0.14                 -0.01309865       -2.061442
0.144                -0.01363054       -2.117807
0.148                -0.01415602       -2.174019
0.152                -0.01467411       -2.230078
0.156                -0.01518173        -2.28599
0.16                  -0.0156779       -2.341757
0.164                -0.01616211       -2.397385
0.168                -0.01663441       -2.452877
0.172                -0.01709014        -2.50824
0.176                -0.01753139        -2.56348
0.18                 -0.01795557       -2.618601
0.184                -0.01836114       -2.673612
0.188                 -0.0187486       -2.728518
0.192                -0.01911483       -2.783325
0.196                -0.01946084       -2.838044
0.2                  -0.01978454        -2.89268
0.204                -0.02008537       -2.947243
0.208                -0.02036122        -3.00174
0.212                -0.02061515       -3.056181
0.216                -0.02084192       -3.110573
0.22                 -0.02104407       -3.164927
0.224                -0.02122047       -3.219253
0.228                 -0.0213695       -3.273557
0.232                -0.02149213       -3.327852
0.236                -0.02158669       -3.382147
0.24                 -0.02165362       -3.436451
0.244                 -0.0216923       -3.490775
0.248                -0.02170313       -3.545129
0.252                -0.02168652       -3.599523
0.256                -0.02164132       -3.653966
0.26                 -0.02156843        -3.70847
0.264                 -0.0214672       -3.763044
0.268                -0.02133959       -3.817698
0.272                -0.02118389       -3.872442
0.276                -0.02100151       -3.927288
0.28                 -0.02079179       -3.982242
0.284                 -0.0205582       -4.037316
0.288                -0.02029749       -4.092519
0.292                -0.02001259       -4.147859
0.296                 -0.0197044       -4.203347
0.3                  -0.01937169        -4.25899
0.304                -0.01901796       -4.314798
0.308                -0.01864199       -4.370777
0.312                 -0.0182462       -4.426938
0.316                -0.01783094       -4.483286
0.32                 -0.01739708       -4.539829
0.324                -0.01694499       -4.596573
0.328                -0.01647809       -4.653528
0.332                -0.01599677       -4.710695
0.336                -0.01550032       -4.768083
0.34                 -0.01499272       -4.825697
0.344                -0.01447383       -4.883541
0.348                 -0.0139445       -4.941621
0.352                -0.01340771       -4.999939
0.356                -0.01286276       -5.058499
0.36                 -0.01231264       -5.117305
0.364                -0.01175874        -5.17636
0.368                -0.01120247       -5.235664
0.372                -0.01064526       -5.295221
0.376                -0.01008697       -5.355031
0.38                -0.009531633       -5.415094
0.384               -0.008978605       -5.475412
0.388               -0.008431913       -5.535984
0.392                -0.00788939       -5.596809
0.396               -0.007355091       -5.657885
0.4                 -0.006830466       -5.719213
0.404               -0.006315955       -5.780788
0.408               -0.005813033       -5.842609
0.412                -0.00532217       -5.904671
0.416               -0.004847439       -5.966974
0.42                 -0.00438724       -6.029512
0.424               -0.003946219        -6.09228
0.428               -0.003520691       -6.155274
0.432               -0.003115858       -6.218487
0.436                -0.00273114       -6.281918
0.44                -0.002367609       -6.345557
0.444                -0.00202786       -6.409401
0.448               -0.001710895       -6.473439
0.452               -0.001418264       -6.537668
0.456               -0.001151051       -6.602081
0.46               -0.0009103688       -6.666667
0.464               -0.000696245       -6.731423
0.468              -0.0005103549       -6.796336
0.472              -0.0003516792       -6.861402
0.476              -0.0002224032       -6.926611
0.48               -0.0001221337       -6.991954
0.484              -5.197061e-05       -7.057424
0.488              -1.101984e-05        -7.12301
0.492              -4.253499e-07       -7.188706
0.496              -1.929897e-05         -7.2545
0.5                -6.878118e-05       -7.320386
0.504               -0.000150101       -7.386352
0.508               -0.000259741       -7.452392
0.512              -0.0004004851       -7.518494
0.516              -0.0005713953       -7.584653
0.52                -0.000771659       -7.650856
0.524                -0.00100196       -7.717097
0.528               -0.001261395       -7.783367
0.532                 -0.0015476       -7.849655
0.536               -0.001863295       -7.915957
0.54                -0.002206091       -7.982262
0.544               -0.002574616       -8.048563
0.548                -0.00297005       -8.114853
0.552               -0.003388997       -8.181122
0.556               -0.003832648       -8.247365
0.56                -0.004300072       -8.313578
0.564               -0.004788423       -8.379749
0.568               -0.005298336       -8.445876
0.572               -0.005827886       -8.511952
0.576               -0.006376236        -8.57797
0.58                -0.006942454       -8.643927
0.584               -0.007523565       -8.709819
0.588               -0.008119687       -8.775641
0.592               -0.008729937        -8.84139
0.596                -0.00935235       -8.907061
0.6                 -0.009984413       -8.972653
0.604                -0.01062621       -9.038164
0.608                -0.01127574       -9.103592
0.612                -0.01193101       -9.168935
0.616                -0.01259159       -9.234191
0.62                  -0.0132543       -9.299365
0.624                -0.01391926       -9.364451
0.628                 -0.0145833       -9.429454
0.632                -0.01524638       -9.494377
0.636                -0.01590653       -9.559216
0.64                 -0.01656152       -9.623978
0.644                -0.01721078       -9.688666
0.648                -0.01785219       -9.753283
0.652                -0.01848461       -9.817832
0.656                 -0.0191043       -9.882317
0.66                 -0.01971324       -9.946743
0.664                -0.02030857       -10.01112
0.668                 -0.0208892       -10.07545
0.672                -0.02145287       -10.13974
0.676                -0.02199831         -10.204
0.68                 -0.02252475       -10.26824
0.684                -0.02303195       -10.33246
0.688                -0.02351666       -10.39666
0.692                -0.02397849       -10.46087
0.696                 -0.0244177       -10.52509
0.7                  -0.02483192       -10.58933
0.704                 -0.0252208       -10.65361
0.708                -0.02558302       -10.71791
0.712                -0.02591822       -10.78227
0.716                -0.02622438        -10.8467
0.72                 -0.02650327       -10.91119
0.724                -0.02675303       -10.97577
0.728                -0.02697151       -11.04045
0.732                -0.02716098       -11.10523
0.736                -0.02731948       -11.17013
0.74                   -0.027447       -11.23517
0.744                -0.02754368       -11.30035
0.748                -0.02761004       -11.36569
0.752                -0.02764408       -11.43119
0.756                -0.02764897       -11.49688
0.76                 -0.02762205       -11.56276
0.764                -0.02756452       -11.62885
0.768                -0.02747688       -11.69516
0.772                -0.02735856        -11.7617
0.776                -0.02721218       -11.82848
0.78                 -0.02703623       -11.89552
0.784                -0.02683282       -11.96283
0.788                -0.02660193       -12.03042
0.792                -0.02634456       -12.09829
0.796                -0.02606077       -12.16648
0.8                  -0.02575371       -12.23497
0.804                 -0.0254223       -12.30379
0.808                -0.02506864       -12.37294
0.812                -0.02469383       -12.44244
0.816                -0.02429898       -12.51229
0.82                 -0.02388561        -12.5825
0.824                 -0.0234553       -12.65309
0.828                 -0.0230087       -12.72406
0.832                -0.02254789       -12.79542
0.836                -0.02207458       -12.86717
0.84                 -0.02158934       -12.93933
0.844                -0.02109491       -13.01189
0.848                -0.02059341       -13.08487
0.852                -0.02008549       -13.15828
0.856                -0.01957191       -13.23211
0.86                 -0.01905742       -13.30637
0.864                -0.01854115       -13.38107
0.868                -0.01802651       -13.45621
0.872                 -0.0175136       -13.53178
0.876                -0.01700585        -13.6078
0.88                 -0.01650399       -13.68427
0.884                -0.01601143       -13.76118
0.888                -0.01552849       -13.83853
0.892                 -0.0150575       -13.91634
0.896                -0.01460038       -13.99459
0.9                  -0.01415855       -14.07328
0.904                -0.01373395       -14.15242
0.908                -0.01332851       -14.23199
0.912                -0.01294465       -14.31201
0.916                -0.01258203       -14.39246
0.92                 -0.01224402       -14.47334
0.924                -0.01193166       -14.55464
0.928                -0.01164663       -14.63636
0.932                 -0.0113904        -14.7185
0.936                -0.01116402       -14.80105
0.94                 -0.01097076       -14.88401
0.944                 -0.0108076       -14.96736
0.948                -0.01068078        -15.0511
0.952                -0.01058848       -15.13521
0.956                -0.01053231       -15.21971
0.96                 -0.01051412       -15.30456
0.964                -0.01053487       -15.38978
0.968                -0.01059458       -15.47535
0.972                -0.01069429       -15.56125
0.976                -0.01083547       -15.64748
0.98                 -0.01101768       -15.73403
0.984                -0.01124233        -15.8209
0.988                -0.01150965       -15.90806
0.992                -0.01181986       -15.99552
0.996                -0.01217312       -16.08325
1                    -0.01256982       -16.17126
1.004                   -0.01301       -16.25952
1.008                -0.01349351       -16.34804
1.012                -0.01402055       -16.43679
1.016                 -0.0145909       -16.52578
1.02                 -0.01520402       -16.61499
1.024                -0.01585903       -16.70442
1.028                -0.01655695         -16.794
1.032                -0.01729619       -16.88383
1.036                -0.01807773       -16.97383
1.04                 -0.01889758       -17.06396
1.044                -0.01975652       -17.15431
1.048                -0.02065406        -17.2448
1.052                -0.02158914       -17.33542
1.056                -0.02256118       -17.42618
1.06                 -0.02356686        -17.5171
1.064                -0.02460739       -17.60813
1.068                -0.02568091       -17.69925
1.072                -0.02678472       -17.79053
1.076                -0.02791778       -17.88189
1.08                 -0.02907912       -17.97336
1.084                -0.03026741       -18.06494
1.088                -0.03148032       -18.15663
1.092                -0.03271702        -18.2484
1.096                -0.03397443       -18.34022
1.1                  -0.03525104       -18.43216
1.104                -0.03654573        -18.5242
1.108                -0.03785673        -18.6163
1.112                -0.03918202       -18.70851
1.116                -0.04051899        -18.8008
1.12                 -0.04186663       -18.89317
1.124                  -0.043222       -18.98562
1.128                -0.04458424       -19.07821
1.132                -0.04595024       -19.17087
1.136                -0.04731875       -19.26364
1.14                 -0.04868657       -19.35651
1.144                -0.05005352        -19.4495
1.148                -0.05141739       -19.54261
1.152                -0.05277499       -19.63585
1.156                -0.05412411       -19.72923
1.16                  -0.0554667       -19.82276
1.164                -0.05679643       -19.91644
1.168                -0.05811358       -20.01028
1.172                -0.05941652       -20.10431
1.176                -0.06070276       -20.19853
1.18                 -0.06197102       -20.29294
1.184                -0.06322027       -20.38758
1.188                -0.06444825       -20.48244
1.192                -0.06565435       -20.57755
1.196                -0.06683611       -20.67291
1.2                  -0.06799473       -20.76856
1.204                -0.06912551       -20.86449
1.208                -0.07022988       -20.96073
1.212                -0.07130611       -21.05729
1.216                -0.07235359        -21.1542
1.22                 -0.07337141       -21.25147
1.224                -0.07435852       -21.34912
1.228                -0.07531533       -21.44717
1.232                -0.07624057       -21.54564
1.236                -0.07713412       -21.64454
1.24                 -0.07799573        -21.7439
1.244                 -0.0788264       -21.84374
1.248                -0.07962427       -21.94408
1.252                -0.08039059       -22.04494
1.256                -0.08112541       -22.14633
1.26                 -0.08182933       -22.24829
1.264                -0.08250343       -22.35083
1.268                -0.08314699       -22.45397
1.272                -0.08376249       -22.55773
1.276                -0.08434793       -22.66214
1.28                  -0.0849088       -22.76721
1.284                -0.08544268       -22.87297
1.288                -0.08595173       -22.97943
1.292                -0.08643734       -23.08661
1.296                -0.08690231       -23.19454
1.3                  -0.08734697       -23.30323
1.304                -0.08777411       -23.41271
1.308                -0.08818401       -23.52298
1.312                -0.08857903       -23.63408
1.316                -0.08896306       -23.74602
1.32                 -0.08933618       -23.85881
1.324                 -0.0897017       -23.97247
1.328                -0.09006166       -24.08703
1.332                -0.09041837       -24.20248
1.336                -0.09077524       -24.31886
1.34                 -0.09113439       -24.43618
1.344                -0.09149747       -24.55444
1.348                -0.09186874       -24.67366
1.352                -0.09225081       -24.79386
1.356                -0.09264741       -24.91505
1.36                 -0.09305913       -25.03723
1.364                -0.09349044       -25.16042
1.368                -0.09394415       -25.28463
1.372                -0.09442324       -25.40986
1.376                -0.09493071       -25.53613
1.38                 -0.09547034       -25.66345
1.384                -0.09604427       -25.79181
1.388                -0.09665777       -25.92123
1.392                -0.09731058       -26.05171
1.396                -0.09800914       -26.18325
1.4                  -0.09875457       -26.31587
1.404                -0.09955067       -26.44955
1.408                 -0.1004008       -26.58431
1.412                 -0.1013083       -26.72014
1.416                 -0.1022756       -26.85704
1.42                  -0.1033041       -26.99502
1.424                 -0.1044003       -27.13408
1.428                 -0.1055648       -27.27421
1.432                 -0.1068008       -27.41541
1.436                 -0.1081121       -27.55768
1.44                  -0.1095012       -27.70101
1.444                 -0.1109691        -27.8454
1.448                 -0.1125191       -27.99084
1.452                 -0.1141541       -28.13734
1.456                 -0.1158765       -28.28488
1.46                  -0.1176896       -28.43346
1.464                  -0.119595       -28.58307
1.468                 -0.1215932        -28.7337
1.472                  -0.123688       -28.88535
1.476                 -0.1258815       -29.03801
1.48                  -0.1281734       -29.19167
1.484                 -0.1305672       -29.34633
1.488                 -0.1330647       -29.50197
1.492                 -0.1356663       -29.65859
1.496                  -0.138373       -29.81617
1.5                    -0.141187       -29.97471
1.504                 -0.1441106        -30.1342
1.508                 -0.1471411       -30.29463
1.512                 -0.1502825         -30.456
1.516                 -0.1535336       -30.61828
1.52                  -0.1568963       -30.78149
1.524                 -0.1603703       -30.94559
1.528                 -0.1639561        -31.1106
1.532                 -0.1676537        -31.2765
1.536                  -0.171462       -31.44328
1.54                  -0.1753835       -31.61094
1.544                 -0.1794162       -31.77948
1.548                 -0.1835597       -31.94888
1.552                  -0.187815       -32.11913
1.556                 -0.1921792       -32.29025
1.56                  -0.1966547       -32.46221
1.564                 -0.2012369       -32.63503
1.568                 -0.2059269       -32.80869
1.572                 -0.2107252        -32.9832
1.576                 -0.2156288       -33.15855
1.58                  -0.2206359       -33.33474
1.584                 -0.2257462       -33.51178
1.588                 -0.2309588       -33.68967
1.592                 -0.2362723       -33.86841
1.596                 -0.2416838       -34.04801
1.6                   -0.2471917       -34.22847
1.604                 -0.2527968       -34.40979
1.608                 -0.2584964         -34.592
1.612                  -0.264287       -34.77509
1.616                  -0.270168       -34.95908
1.62                  -0.2761388       -35.14397
1.624                 -0.2821949       -35.32979
1.628                 -0.2883371       -35.51654
1.632                 -0.2945629       -35.70425
1.636                 -0.3008702       -35.89292
1.64                  -0.3072574       -36.08259
1.644                 -0.3137223       -36.27326
1.648                 -0.3202639       -36.46496
1.652                 -0.3268804       -36.65772
1.656                 -0.3335716       -36.85155
1.66                  -0.3403322       -37.04649
1.664                  -0.347165       -37.24257
1.668                 -0.3540656        -37.4398
1.672                 -0.3610362       -37.63823
1.676                  -0.368072       -37.83788
1.68                  -0.3751746       -38.03879
1.684                 -0.3823415       -38.24099
1.688                 -0.3895741       -38.44453
1.692                 -0.3968699       -38.64944
1.696                  -0.404229       -38.85575
1.7                   -0.4116519       -39.06351
1.704                 -0.4191389       -39.27276
1.708                 -0.4266888       -39.48356
1.712                 -0.4343024       -39.69592
1.716                  -0.441983       -39.90992
1.72                  -0.4497273       -40.12558
1.724                 -0.4575402       -40.34298
1.728                 -0.4654194       -40.56214
1.732                 -0.4733696       -40.78312
1.736                 -0.4813911       -41.00598
1.74                  -0.4894858       -41.23076
1.744                 -0.4976588       -41.45753
1.748                 -0.5059098       -41.68633
1.752                 -0.5142425       -41.91722
1.756                 -0.5226613       -42.15027
1.76                  -0.5311695       -42.38551
1.764                 -0.5397692       -42.62301
1.768                  -0.548468       -42.86284
1.772                 -0.5572672       -43.10503
1.776                 -0.5661749       -43.34967
1.78                  -0.5751922       -43.59681
1.784                 -0.5843298        -43.8465
1.788                 -0.5935889       -44.09881
1.792                 -0.6029783       -44.35379
1.796                 -0.6125038       -44.61151
1.8                   -0.6221728       -44.87203
1.804                 -0.6319926        -45.1354
1.808                 -0.6419706        -45.4017
1.812                 -0.6521142       -45.67097
1.816                 -0.6624319       -45.94328
1.82                  -0.6729333       -46.21868
1.824                 -0.6836257       -46.49723
1.828                 -0.6945198         -46.779
1.832                 -0.7056255       -47.06406
1.836                 -0.7169511       -47.35243
1.84                  -0.7285091       -47.64419
1.844                 -0.7403091       -47.93941
1.848                 -0.7523598       -48.23811
1.852                  -0.764676       -48.54037
1.856                  -0.777267       -48.84624
1.86                  -0.7901472       -49.15578
1.864                  -0.803325       -49.46903
1.868                 -0.8168167       -49.78605
1.872                  -0.830633       -50.10689
1.876                 -0.8447881        -50.4316
1.88                  -0.8592944       -50.76023
1.884                 -0.8741659       -51.09281
1.888                  -0.889417       -51.42942
1.892                 -0.9050616       -51.77009
1.896                 -0.9211147       -52.11486
1.9                   -0.9375891       -52.46376
1.904                 -0.9545027       -52.81687
1.908                 -0.9718681        -53.1742
1.912                 -0.9897042       -53.53582
1.916                  -1.008022       -53.90173
1.92                   -1.026841       -54.27201
1.924                  -1.046176       -54.64667
1.928                  -1.066046       -55.02576
1.932                  -1.086464        -55.4093
1.936                  -1.107448       -55.79734
1.94                   -1.129017       -56.18991
1.944                  -1.151185       -56.58703
1.948                  -1.173972       -56.98876
1.952                  -1.197396        -57.3951
1.956                  -1.221473       -57.80608
1.96                   -1.246223       -58.22176
1.964                  -1.271662       -58.64213
1.968                  -1.297811       -59.06725
1.972                  -1.324687       -59.49713
1.976                   -1.35231        -59.9318
1.98                   -1.380699       -60.37128
1.984                  -1.409872        -60.8156
1.988                   -1.43985       -61.26478
1.992                  -1.470651       -61.71884
1.996                  -1.502296       -62.17782
2                      -1.534805       -62.64172
2.004                  -1.568199        -63.1106
2.008                  -1.602498       -63.58445
2.012                  -1.637721        -64.0633
2.016                  -1.673891       -64.54717
2.02                   -1.711027       -65.03609
2.024                  -1.749153       -65.53009
2.028                   -1.78829       -66.02917
2.032                  -1.828457       -66.53338
2.036                  -1.869679       -67.04273
2.04                   -1.911977       -67.55725
2.044                  -1.955375       -68.07697
2.048                  -1.999893       -68.60188
2.052                  -2.045557       -69.13207
2.056                  -2.092389       -69.66753
2.06                   -2.140414       -70.20829
2.064                  -2.189654        -70.7544
2.068                  -2.240134       -71.30587
2.072                   -2.29188       -71.86274
2.076                  -2.344915       -72.42507
2.08                   -2.399265       -72.99285
2.084                  -2.454957       -73.56617
2.088                  -2.512018       -74.14504
2.092                  -2.570471       -74.72952
2.096                  -2.630344       -75.31965
2.1                    -2.691667       -75.91549
2.104                  -2.754466       -76.51706
2.108                  -2.818771       -77.12447
2.112                   -2.88461       -77.73774
2.116                  -2.952012       -78.35695
2.12                   -3.021009       -78.98219
2.124                   -3.09163       -79.61347
2.128                  -3.163907       -80.25093
2.132                   -3.23787       -80.89463
2.136                  -3.313557       -81.54465
2.14                   -3.390996       -82.20109
2.144                  -3.470225       -82.86406
2.148                  -3.551276       -83.53363
2.152                  -3.634186       -84.20996
2.156                  -3.718993       -84.89314
2.16                   -3.805732       -85.58332
2.164                  -3.894444       -86.28063
2.168                  -3.985167        -86.9852
2.172                  -4.077942       -87.69721
2.176                  -4.172809       -88.41679
2.18                   -4.269813       -89.14417
2.184                  -4.368995       -89.87949
2.188                  -4.470402       -90.62299
2.192                  -4.574079       -91.37488
2.196                  -4.680076       -92.13535
2.2                    -4.788437       -92.90471
2.204                  -4.899215       -93.68318
2.208                  -5.012463       -94.47105
2.212                  -5.128231       -95.26864
2.216                  -5.246575       -96.07624
2.22                   -5.367551       -96.89419
2.224                  -5.491218       -97.72291
2.228                  -5.617632       -98.56275
2.232                  -5.746855       -99.41415
2.236                  -5.878952       -100.2776
2.24                   -6.013986       -101.1534
2.244                  -6.152023       -102.0424
2.248                   -6.29313       -102.9448
2.252                  -6.437377       -103.8615
2.256                  -6.584838        -104.793
2.26                   -6.735582         -105.74
2.264                  -6.889685       -106.7032
2.268                  -7.047224       -107.6835
2.272                  -7.208275       -108.6817
2.276                  -7.372918       -109.6988
2.28                   -7.541233       -110.7357
2.284                  -7.713297       -111.7936
2.288                  -7.889193       -112.8736
2.292                  -8.069001       -113.9769
2.296                  -8.252798        -115.105
2.3                    -8.440665       -116.2592
2.304                  -8.632675       -117.4413
2.308                  -8.828903       -118.6529
2.312                  -9.029417       -119.8959
2.316                  -9.234277       -121.1723
2.32                   -9.443538       -122.4843
2.324                  -9.657243       -123.8343
2.328                  -9.875426       -125.2248
2.332                   -10.0981       -126.6587
2.336                  -10.32526       -128.1389
2.34                   -10.55689       -129.6686
2.344                  -10.79292       -131.2515
2.348                  -11.03327       -132.8913
2.352                  -11.27779        -134.592
2.356                  -11.52632        -136.358
2.36                   -11.77861        -138.194
2.364                  -12.03433       -140.1049
2.368                  -12.29309       -142.0961
2.372                   -12.5544        -144.173
2.376                  -12.81764       -146.3413
2.38                   -13.08206        -148.607
2.384                  -13.34677       -150.9759
2.388                   -13.6107       -153.4541
2.392                   -13.8726       -156.0471
2.396                    -14.131       -158.7602
2.4                    -14.38422        -161.598
2.404                  -14.63036       -164.5639