! TOUCHSTONE file generated by CST MICROWAVE STUDIO
! Date and time: Fri May  6 09:22:48 2022
! Project name: ant1_ceramic_sweep_10porcent.cst
! Parameters = {e=0.035; h=1.6; i=0.808; l1=0.5; l2=17; ls=80; wl=1.7; ws=30}
! Header version: 2018
! Port assignment regex: !\s*Touchstone port\s*([0-9]+)\s*=\s*(CST MWS port|CST DS port)\s*([0-9]+|Zmin|Zmax)\s*\(\"(.*)\"\)(\s*mode\s*([0-9]+))?.*
! Touchstone port assignment:
! Touchstone port 1 = CST MWS port 1 ("")
# GHz S DB R 50
0                  -0.0001087217              -0
0.004              -0.0001215208     -0.06025812
0.008              -0.0001599207      -0.1205083
0.012              -0.0002244474      -0.1807426
0.016              -0.0003135614      -0.2409531
0.02               -0.0004288348       -0.301132
0.024              -0.0005692565      -0.3612715
0.028              -0.0007333027      -0.4213641
0.032              -0.0009220433      -0.4814022
0.036               -0.001133964      -0.5413785
0.04                -0.001370146      -0.6012857
0.044               -0.001627529      -0.6611169
0.048               -0.001907719      -0.7208652
0.052               -0.002208704      -0.7805241
0.056               -0.002530024      -0.8400872
0.06                -0.002870708      -0.8995487
0.064               -0.003230823      -0.9589024
0.068               -0.003608368       -1.018143
0.072               -0.004002897       -1.077265
0.076               -0.004413447       -1.136265
0.08                 -0.00483906       -1.195137
0.084               -0.005278259       -1.253877
0.088               -0.005729052       -1.312481
0.092               -0.006191516       -1.370946
0.096               -0.006665733       -1.429269
0.1                 -0.007146082       -1.487448
0.104               -0.007638342        -1.54548
0.108                -0.00813482       -1.603363
0.112               -0.008635592       -1.661096
0.116               -0.009141771       -1.718677
0.12                  -0.0096498       -1.776107
0.124                -0.01016027       -1.833385
0.128                -0.01067066       -1.890513
0.132                   -0.01118       -1.947489
0.136                -0.01168575       -2.004316
0.14                  -0.0121885       -2.060995
0.144                -0.01268571       -2.117528
0.148                 -0.0131769       -2.173919
0.152                -0.01366005       -2.230169
0.156                -0.01413417       -2.286282
0.16                 -0.01459824       -2.342262
0.164                -0.01505127       -2.398114
0.168                -0.01549173       -2.453841
0.172                -0.01591858       -2.509449
0.176                -0.01632978       -2.564943
0.18                 -0.01672532       -2.620329
0.184                 -0.0171047       -2.675612
0.188                -0.01746583       -2.730801
0.192                -0.01780765         -2.7859
0.196                -0.01813067       -2.840918
0.2                  -0.01843279       -2.895861
0.204                -0.01871293       -2.950738
0.208                 -0.0189721       -3.005556
0.212                -0.01920662       -3.060323
0.216                -0.01941954       -3.115049
0.22                 -0.01960667        -3.16974
0.224                -0.01977104       -3.224407
0.228                -0.01990895       -3.279058
0.232                -0.02002239       -3.333703
0.236                -0.02010973       -3.388351
0.24                 -0.02017192        -3.44301
0.244                 -0.0202073       -3.497691
0.248                -0.02021679       -3.552402
0.252                -0.02019979       -3.607154
0.256                -0.02015668       -3.661957
0.26                 -0.02008788       -3.716818
0.264                 -0.0199917       -3.771748
0.268                -0.01987216       -3.826757
0.272                -0.01972601       -3.881854
0.276                -0.01955365       -3.937047
0.28                 -0.01935804       -3.992347
0.284                -0.01913799       -4.047762
0.288                -0.01889388       -4.103301
0.292                -0.01862608       -4.158972
0.296                -0.01833754       -4.214785
0.3                  -0.01802655       -4.270746
0.304                -0.01769555       -4.326866
0.308                -0.01734231       -4.383149
0.312                -0.01697185       -4.439605
0.316                -0.01658452       -4.496242
0.32                 -0.01617758       -4.553064
0.324                -0.01575657       -4.610079
0.328                -0.01531873       -4.667291
0.332                -0.01486753        -4.72471
0.336                -0.01440385       -4.782338
0.34                  -0.0139291       -4.840181
0.344                -0.01344465       -4.898245
0.348                -0.01294934       -4.956531
0.352                -0.01244767       -5.015045
0.356                 -0.0119395       -5.073791
0.36                 -0.01142625       -5.132769
0.364                -0.01090879       -5.191985
0.368                 -0.0103896       -5.251438
0.372               -0.009868544       -5.311131
0.376               -0.009348599       -5.371066
0.38                 -0.00882966       -5.431242
0.384               -0.008314196        -5.49166
0.388               -0.007804685       -5.552321
0.392               -0.007298461       -5.613221
0.396               -0.006801104       -5.674362
0.4                   -0.0063115       -5.735741
0.404               -0.005832161       -5.797357
0.408               -0.005365082       -5.859208
0.412               -0.004907626       -5.921289
0.416               -0.004466464       -5.983599
0.42                -0.004039471       -6.046133
0.424                -0.00362715       -6.108886
0.428               -0.003232556       -6.171855
0.432               -0.002857741       -6.235038
0.436               -0.002500133       -6.298424
0.44                -0.002164367       -6.362012
0.444               -0.001849937       -6.425794
0.448               -0.001557404       -6.489764
0.452               -0.001286755       -6.553917
0.456               -0.001041161       -6.618246
0.46                -0.000819106       -6.682743
0.464              -0.0006232241       -6.747402
0.468              -0.0004525547       -6.812215
0.472              -0.0003082149       -6.877173
0.476              -0.0001918257       -6.942271
0.48               -0.0001024279       -7.007501
0.484              -4.015104e-05       -7.072852
0.488              -6.617077e-06       -7.138319
0.492               9.470271e-08       -7.203891
0.496              -2.369501e-05       -7.269564
0.5                -7.510048e-05       -7.335324
0.504              -0.0001547071       -7.401166
0.508              -0.0002616143       -7.467081
0.512              -0.0003980417       -7.533062
0.516              -0.0005626054       -7.599099
0.52               -0.0007554507       -7.665184
0.524              -0.0009756855       -7.731309
0.528               -0.001222936       -7.797467
0.532               -0.001496341        -7.86365
0.536               -0.001796085       -7.929848
0.54                -0.002120717       -7.996057
0.544               -0.002472008       -8.062267
0.548               -0.002845917       -8.128474
0.552               -0.003243239       -8.194665
0.556               -0.003662923       -8.260842
0.56                -0.004103746       -8.326991
0.564               -0.004566751       -8.393112
0.568               -0.005047993       -8.459197
0.572               -0.005547668       -8.525238
0.576               -0.006065311       -8.591236
0.58                 -0.00659953       -8.657182
0.584               -0.007147383       -8.723072
0.588               -0.007710992       -8.788905
0.592               -0.008285271       -8.854676
0.596               -0.008871382       -8.920384
0.6                 -0.009467887       -8.986023
0.604                -0.01007276       -9.051593
0.608                -0.01068344       -9.117094
0.612                -0.01130104       -9.182523
0.616                -0.01192303       -9.247881
0.62                 -0.01254733       -9.313166
0.624                -0.01317294        -9.37838
0.628                -0.01379773       -9.443525
0.632                -0.01442279         -9.5086
0.636                -0.01504338       -9.573608
0.64                 -0.01565998       -9.638552
0.644                -0.01627046       -9.703434
0.648                -0.01687365        -9.76826
0.652                -0.01746797        -9.83303
0.656                -0.01805328       -9.897752
0.66                 -0.01862583       -9.962428
0.664                -0.01918545       -10.02707
0.668                -0.01973199       -10.09167
0.672                -0.02026216       -10.15625
0.676                -0.02077629       -10.22081
0.68                 -0.02127259       -10.28535
0.684                -0.02174927       -10.34989
0.688                -0.02220664       -10.41443
0.692                -0.02264284       -10.47898
0.696                -0.02305656       -10.54356
0.7                  -0.02344808       -10.60816
0.704                -0.02381391        -10.6728
0.708                 -0.0241563       -10.73749
0.712                -0.02447396       -10.80224
0.716                 -0.0247649       -10.86705
0.72                 -0.02502879       -10.93195
0.724                -0.02526582       -10.99694
0.728                -0.02547498       -11.06203
0.732                -0.02565645       -11.12723
0.736                -0.02580927       -11.19255
0.74                 -0.02593353       -11.25801
0.744                 -0.0260283       -11.32362
0.748                 -0.0260952       -11.38938
0.752                -0.02613325       -11.45532
0.756                -0.02614203       -11.52144
0.76                 -0.02612255       -11.58775
0.764                -0.02607496       -11.65427
0.768                -0.02599818       -11.72101
0.772                -0.02589538       -11.78797
0.776                -0.02576506       -11.85518
0.78                 -0.02560776       -11.92264
0.784                -0.02542406       -11.99036
0.788                  -0.025216       -12.05836
0.792                -0.02498367       -12.12664
0.796                -0.02472812       -12.19522
0.8                  -0.02444893        -12.2641
0.804                -0.02414755        -12.3333
0.808                -0.02382727       -12.40283
0.812                -0.02348654       -12.47269
0.816                -0.02312795        -12.5429
0.82                 -0.02275217       -12.61346
0.824                -0.02236078       -12.68438
0.828                -0.02195542       -12.75567
0.832                -0.02153619       -12.82734
0.836                -0.02110678       -12.89939
0.84                 -0.02066736       -12.97184
0.844                -0.02021901       -13.04468
0.848                  -0.019764       -13.11793
0.852                -0.01930349       -13.19158
0.856                -0.01883977       -13.26564
0.86                 -0.01837401       -13.34013
0.864                -0.01790796       -13.41503
0.868                -0.01744286       -13.49035
0.872                -0.01698205       -13.56611
0.876                -0.01652528       -13.64229
0.88                 -0.01607545        -13.7189
0.884                -0.01563479       -13.79595
0.888                -0.01520267       -13.87342
0.892                  -0.014783       -13.95133
0.896                -0.01437717       -14.02966
0.9                   -0.0139866       -14.10843
0.904                -0.01361214       -14.18762
0.908                -0.01325579       -14.26725
0.912                -0.01292003       -14.34729
0.916                -0.01260641       -14.42776
0.92                 -0.01231531       -14.50864
0.924                -0.01204878       -14.58993
0.928                -0.01180847       -14.67163
0.932                -0.01159531       -14.75374
0.936                -0.01141201       -14.83624
0.94                 -0.01125806       -14.91913
0.944                -0.01113556       -15.00241
0.948                 -0.0110457       -15.08607
0.952                -0.01098965        -15.1701
0.956                -0.01096864       -15.25449
0.96                 -0.01098226       -15.33924
0.964                -0.01103255       -15.42434
0.968                -0.01112046       -15.50979
0.972                -0.01124719       -15.59556
0.976                -0.01141299       -15.68165
0.98                 -0.01161687       -15.76806
0.984                -0.01186174       -15.85478
0.988                -0.01214583        -15.9418
0.992                -0.01247157        -16.0291
0.996                -0.01283807       -16.11668
1                    -0.01324508       -16.20453
1.004                -0.01369406       -16.29264
1.008                -0.01418364         -16.381
1.012                 -0.0147146        -16.4696
1.016                -0.01528737       -16.55843
1.02                 -0.01589961       -16.64749
1.024                -0.01655167       -16.73677
1.028                -0.01724361       -16.82624
1.032                -0.01797519       -16.91591
1.036                -0.01874572       -17.00577
1.04                 -0.01955416       -17.09579
1.044                -0.02039883         -17.186
1.048                -0.02128093       -17.27638
1.052                -0.02219765       -17.36692
1.056                -0.02314727       -17.45757
1.06                 -0.02413187       -17.54841
1.064                -0.02514806       -17.63936
1.068                -0.02619554       -17.73048
1.072                 -0.0272714        -17.8217
1.076                -0.02837584       -17.91304
1.08                 -0.02950698       -18.00448
1.084                 -0.0306639       -18.09608
1.088                -0.03184267       -18.18774
1.092                -0.03304516       -18.27954
1.096                -0.03426695       -18.37142
1.1                  -0.03550823       -18.46344
1.104                -0.03676597       -18.55554
1.108                -0.03803912       -18.64777
1.112                -0.03932624       -18.74009
1.116                -0.04062441       -18.83249
1.12                 -0.04193294       -18.92502
1.124                -0.04324939       -19.01767
1.128                -0.04457246       -19.11043
1.132                -0.04589969        -19.2033
1.136                -0.04722935       -19.29629
1.14                 -0.04855954       -19.38941
1.144                -0.04988949       -19.48267
1.148                -0.05121596       -19.57607
1.152                -0.05253754       -19.66961
1.156                  -0.053853       -19.76331
1.16                 -0.05516057       -19.85718
1.164                 -0.0564581       -19.95121
1.168                -0.05774509       -20.04544
1.172                -0.05901809       -20.13986
1.176                -0.06027736       -20.23449
1.18                 -0.06152033       -20.32934
1.184                -0.06274633       -20.42441
1.188                 -0.0639529       -20.51974
1.192                -0.06513921       -20.61532
1.196                -0.06630534       -20.71118
1.2                  -0.06744856       -20.80732
1.204                -0.06856852       -20.90377
1.208                -0.06966347       -21.00055
1.212                -0.07073473       -21.09765
1.216                -0.07177929       -21.19512
1.22                 -0.07279696       -21.29295
1.224                -0.07378778       -21.39117
1.228                -0.07475049        -21.4898
1.232                -0.07568526       -21.58886
1.236                -0.07659216       -21.68836
1.24                 -0.07747122       -21.78832
1.244                -0.07832081       -21.88877
1.248                -0.07914227       -21.98972
1.252                -0.07993626       -22.09119
1.256                -0.08070254        -22.1932
1.26                 -0.08144073       -22.29577
1.264                -0.08215228       -22.39892
1.268                -0.08283757       -22.50268
1.272                -0.08349846       -22.60705
1.276                -0.08413422       -22.71206
1.28                 -0.08474688       -22.81774
1.284                -0.08533787       -22.92409
1.288                -0.08590684       -23.03113
1.292                -0.08645712        -23.1389
1.296                -0.08698899        -23.2474
1.3                  -0.08750437       -23.35666
1.304                -0.08800495       -23.46668
1.308                -0.08849195        -23.5775
1.312                -0.08896921       -23.68912
1.316                -0.08943596       -23.80157
1.32                 -0.08989641       -23.91486
1.324                -0.09035226       -24.02901
1.328                -0.09080527       -24.14403
1.332                -0.09125756       -24.25993
1.336                -0.09171367       -24.37674
1.34                 -0.09217307       -24.49446
1.344                -0.09264037       -24.61311
1.348                -0.09311827       -24.73271
1.352                -0.09360816       -24.85326
1.356                -0.09411384       -24.97477
1.36                 -0.09463865       -25.09726
1.364                -0.09518298       -25.22074
1.368                -0.09575172        -25.3452
1.372                -0.09634774       -25.47068
1.376                -0.09697384       -25.59717
1.38                  -0.0976326       -25.72467
1.384                -0.09832755        -25.8532
1.388                -0.09906015       -25.98276
1.392                -0.09983732       -26.11336
1.396                 -0.1006569         -26.245
1.4                   -0.1015248       -26.37768
1.404                 -0.1024439       -26.51141
1.408                 -0.1034165       -26.64619
1.412                 -0.1044459       -26.78202
1.416                 -0.1055356        -26.9189
1.42                  -0.1066867       -27.05683
1.424                 -0.1079039       -27.19581
1.428                 -0.1091882       -27.33585
1.432                 -0.1105446       -27.47693
1.436                 -0.1119733       -27.61905
1.44                  -0.1134783       -27.76222
1.444                 -0.1150619       -27.90643
1.448                 -0.1167268       -28.05167
1.452                 -0.1184745       -28.19795
1.456                 -0.1203084       -28.34525
1.46                    -0.12223       -28.49357
1.464                 -0.1242417        -28.6429
1.468                 -0.1263444       -28.79325
1.472                 -0.1285426       -28.94459
1.476                  -0.130835       -29.09693
1.48                  -0.1332256       -29.25026
1.484                 -0.1357154       -29.40458
1.488                 -0.1383049       -29.55985
1.492                 -0.1409977       -29.71611
1.496                 -0.1437925       -29.87331
1.5                   -0.1466919       -30.03147
1.504                 -0.1496968       -30.19058
1.508                  -0.152807       -30.35061
1.512                 -0.1560258       -30.51158
1.516                 -0.1593505       -30.67346
1.52                  -0.1627847       -30.83626
1.524                 -0.1663272       -30.99997
1.528                 -0.1699791       -31.16458
1.532                 -0.1737397       -31.33007
1.536                 -0.1776104       -31.49647
1.54                  -0.1815891       -31.66373
1.544                 -0.1856779       -31.83188
1.548                 -0.1898749       -32.00089
1.552                 -0.1941805       -32.17078
1.556                 -0.1985942       -32.34153
1.56                  -0.2031156       -32.51315
1.564                 -0.2077437       -32.68563
1.568                 -0.2124768       -32.85896
1.572                 -0.2173154       -33.03315
1.576                 -0.2222575       -33.20821
1.58                  -0.2273035       -33.38412
1.584                 -0.2324512       -33.56089
1.588                 -0.2377003       -33.73853
1.592                 -0.2430485       -33.91706
1.596                 -0.2484944       -34.09645
1.6                   -0.2540372       -34.27672
1.604                 -0.2596753       -34.45787
1.608                  -0.265409       -34.63993
1.612                  -0.271233       -34.82291
1.616                  -0.277149       -35.00679
1.62                  -0.2831543       -35.19161
1.624                 -0.2892481       -35.37738
1.628                 -0.2954272        -35.5641
1.632                  -0.301692       -35.75181
1.636                 -0.3080405       -35.94051
1.64                  -0.3144708       -36.13022
1.644                 -0.3209816       -36.32096
1.648                  -0.327572       -36.51276
1.652                 -0.3342382       -36.70564
1.656                 -0.3409843       -36.89962
1.66                  -0.3478038       -37.09474
1.664                 -0.3546976         -37.291
1.668                 -0.3616661       -37.48845
1.672                 -0.3687055       -37.68712
1.676                 -0.3758174       -37.88704
1.68                  -0.3830009       -38.08823
1.684                 -0.3902545       -38.29073
1.688                 -0.3975779       -38.49459
1.692                 -0.4049711       -38.69983
1.696                 -0.4124358       -38.90651
1.7                   -0.4199688       -39.11464
1.704                  -0.427573       -39.32427
1.708                 -0.4352486       -39.53546
1.712                 -0.4429946       -39.74824
1.716                 -0.4508143       -39.96265
1.72                   -0.458708       -40.17874
1.724                  -0.466676       -40.39656
1.728                 -0.4747215       -40.61616
1.732                 -0.4828445       -40.83757
1.736                 -0.4910494       -41.06087
1.74                  -0.4993365       -41.28608
1.744                 -0.5077104       -41.51327
1.748                 -0.5161726       -41.74249
1.752                 -0.5247275        -41.9738
1.756                 -0.5333775       -42.20723
1.76                  -0.5421264       -42.44285
1.764                 -0.5509791       -42.68073
1.768                 -0.5599382       -42.92089
1.772                 -0.5690105        -43.1634
1.776                  -0.578201       -43.40833
1.78                  -0.5875147       -43.65574
1.784                 -0.5969565       -43.90566
1.788                 -0.6065324       -44.15817
1.792                 -0.6162496       -44.41331
1.796                 -0.6261133       -44.67114
1.8                   -0.6361318       -44.93174
1.804                 -0.6463118       -45.19513
1.808                 -0.6566619       -45.46141
1.812                 -0.6671885        -45.7306
1.816                 -0.6779011       -46.00278
1.82                  -0.6888067       -46.27798
1.824                 -0.6999162       -46.55629
1.828                 -0.7112377       -46.83774
1.832                 -0.7227813       -47.12239
1.836                 -0.7345555       -47.41032
1.84                  -0.7465716       -47.70153
1.844                 -0.7588405       -47.99613
1.848                 -0.7713722       -48.29414
1.852                 -0.7841781       -48.59562
1.856                 -0.7972698       -48.90062
1.86                  -0.8106589        -49.2092
1.864                 -0.8243572        -49.5214
1.868                  -0.838379       -49.83727
1.872                 -0.8527331       -50.15686
1.876                 -0.8674347       -50.48021
1.88                  -0.8824979       -50.80739
1.884                 -0.8979347       -51.13842
1.888                 -0.9137576       -51.47335
1.892                  -0.929983       -51.81223
1.896                 -0.9466235       -52.15509
1.9                   -0.9636964       -52.50199
1.904                 -0.9812119       -52.85295
1.908                 -0.9991876       -53.20801
1.912                  -1.017639       -53.56724
1.916                  -1.036582       -53.93064
1.92                    -1.05603       -54.29826
1.924                     -1.076       -54.67013
1.928                  -1.096509       -55.04629
1.932                  -1.117572       -55.42677
1.936                  -1.139208       -55.81161
1.94                    -1.16143       -56.20084
1.944                  -1.184258       -56.59446
1.948                  -1.207708       -56.99256
1.952                  -1.231798        -57.3951
1.956                  -1.256545       -57.80215
1.96                   -1.281967       -58.21374
1.964                  -1.308082       -58.62986
1.968                  -1.334909       -59.05057
1.972                  -1.362463       -59.47588
1.976                  -1.390769       -59.90582
1.98                   -1.419839        -60.3404
1.984                  -1.449696       -60.77965
1.988                   -1.48036       -61.22361
1.992                  -1.511847       -61.67227
1.996                  -1.544177       -62.12566
2                      -1.577373       -62.58383
2.004                  -1.611451       -63.04677
2.008                  -1.646434        -63.5145
2.012                  -1.682341       -63.98705
2.016                  -1.719195       -64.46445
2.02                   -1.757014       -64.94672
2.024                   -1.79582       -65.43385
2.028                  -1.835635        -65.9259
2.032                   -1.87648       -66.42286
2.036                  -1.918376       -66.92478
2.04                   -1.961348       -67.43167
2.044                  -2.005414       -67.94354
2.048                  -2.050603       -68.46044
2.052                   -2.09693       -68.98237
2.056                  -2.144424       -69.50935
2.06                   -2.193107       -70.04144
2.064                  -2.243003       -70.57865
2.068                  -2.294136       -71.12101
2.072                   -2.34653       -71.66854
2.076                  -2.400211       -72.22128
2.08                   -2.455204       -72.77928
2.084                  -2.511534       -73.34255
2.088                  -2.569228       -73.91114
2.092                  -2.628313       -74.48509
2.096                  -2.688814       -75.06444
2.1                    -2.750761       -75.64924
2.104                  -2.814182       -76.23954
2.108                  -2.879103       -76.83539
2.112                  -2.945556       -77.43684
2.116                  -3.013568       -78.04394
2.12                   -3.083173       -78.65677
2.124                  -3.154398       -79.27539
2.128                  -3.227277       -79.89986
2.132                   -3.30184       -80.53028
2.136                  -3.378124        -81.1667
2.14                   -3.456159       -81.80923
2.144                   -3.53598       -82.45793
2.148                  -3.617624       -83.11295
2.152                  -3.701128       -83.77434
2.156                  -3.786526       -84.44224
2.16                   -3.873859       -85.11676
2.164                  -3.963165       -85.79802
2.168                  -4.054482       -86.48619
2.172                  -4.147855       -87.18135
2.176                  -4.243322        -87.8837
2.18                   -4.340931       -88.59341
2.184                  -4.440725       -89.31063
2.188                  -4.542749       -90.03556
2.192                   -4.64705       -90.76839
2.196                   -4.75368       -91.50935
2.2                    -4.862686       -92.25865
2.204                  -4.974121       -93.01656
2.208                  -5.088037       -93.78332
2.212                   -5.20449       -94.55923
2.216                  -5.323538       -95.34456
2.22                   -5.445237       -96.13965
2.224                  -5.569649       -96.94485
2.228                  -5.696834       -97.76051
2.232                  -5.826859       -98.58704
2.236                  -5.959787       -99.42486
2.24                   -6.095689       -100.2744
2.244                  -6.234634       -101.1362
2.248                  -6.376695       -102.0108
2.252                  -6.521944       -102.8987
2.256                  -6.670463       -103.8005
2.26                   -6.822326       -104.7169
2.264                  -6.977617       -105.6487
2.268                   -7.13642       -106.5964
2.272                  -7.298818        -107.561
2.276                  -7.464902       -108.5434
2.28                   -7.634759       -109.5445
2.284                  -7.808483       -110.5653
2.288                  -7.986165        -111.607
2.292                    -8.1679       -112.6708
2.296                  -8.353783       -113.7579
2.3                     -8.54391       -114.8698
2.304                  -8.738376        -116.008
2.308                  -8.937273       -117.1743
2.312                  -9.140696       -118.3703
2.316                  -9.348732       -119.5981
2.32                   -9.561465       -120.8598
2.324                  -9.778973       -122.1578
2.328                  -10.00132       -123.4946
2.332                  -10.22858       -124.8729
2.336                  -10.46077       -126.2958
2.34                   -10.69794       -127.7664
2.344                  -10.94007       -129.2884
2.348                  -11.18715       -130.8656
2.352                   -11.4391       -132.5022
2.356                  -11.69582       -134.2026
2.36                   -11.95715       -135.9719
2.364                  -12.22287       -137.8152
2.368                  -12.49267       -139.7382
2.372                  -12.76615       -141.7468
2.376                  -13.04281       -143.8476
2.38                     -13.322       -146.0471
2.384                  -13.60295       -148.3524
2.388                  -13.88466       -150.7706
2.392                  -14.16598       -153.3086
2.396                  -14.44549       -155.9736
2.4                    -14.72154        -158.772
2.404                  -14.99221       -161.7094