! TOUCHSTONE file generated by CST MICROWAVE STUDIO
! Date and time: Fri May  6 09:22:52 2022
! Project name: ant1_ceramic_sweep_10porcent.cst
! Parameters = {e=0.035; h=1.6; i=0.8; l1=0.5; l2=18.7; ls=80; wl=1.7; ws=30}
! Header version: 2018
! Port assignment regex: !\s*Touchstone port\s*([0-9]+)\s*=\s*(CST MWS port|CST DS port)\s*([0-9]+|Zmin|Zmax)\s*\(\"(.*)\"\)(\s*mode\s*([0-9]+))?.*
! Touchstone port assignment:
! Touchstone port 1 = CST MWS port 1 ("")
# GHz S DB R 50
0                  -0.0002635232              -0
0.004              -0.0002824331       -0.064029
0.008              -0.0003386498      -0.1280454
0.012              -0.0004316694      -0.1920367
0.016              -0.0005604795      -0.2559904
0.02               -0.0007271834      -0.3198943
0.024              -0.0009287155       -0.383736
0.028               -0.001166679      -0.4475035
0.032                -0.00143906      -0.5111853
0.036               -0.001744891      -0.5747695
0.04                -0.002084244      -0.6382452
0.044               -0.002454612      -0.7016013
0.048               -0.002857118      -0.7648274
0.052               -0.003288231      -0.8279134
0.056               -0.003747017      -0.8908496
0.06                -0.004234616      -0.9536267
0.064                -0.00474803       -1.016236
0.068               -0.005284267        -1.07867
0.072               -0.005842408       -1.140919
0.076                -0.00642361       -1.202978
0.08                -0.007022296        -1.26484
0.084               -0.007640145       -1.326499
0.088                -0.00827262       -1.387949
0.092               -0.008918809       -1.449186
0.096               -0.009577799       -1.510207
0.1                  -0.01024557       -1.571008
0.104                -0.01092224       -1.631585
0.108                -0.01160326       -1.691939
0.112                 -0.0122898       -1.752067
0.116                -0.01297832       -1.811968
0.12                 -0.01366635       -1.871645
0.124                -0.01435191       -1.931097
0.128                -0.01503302       -1.990326
0.132                -0.01570926       -2.049335
0.136                -0.01637656       -2.108128
0.14                 -0.01703345       -2.166707
0.144                -0.01767739       -2.225078
0.148                -0.01830844       -2.283247
0.152                -0.01892303       -2.341219
0.156                -0.01951964       -2.399001
0.16                 -0.02009674       -2.456601
0.164                -0.02065281       -2.514026
0.168                 -0.0211863       -2.571286
0.172                -0.02169409       -2.628389
0.176                -0.02217568       -2.685345
0.18                 -0.02263051       -2.742166
0.184                -0.02305544       -2.798861
0.188                -0.02345096       -2.855443
0.192                -0.02381494       -2.911923
0.196                -0.02414524       -2.968313
0.2                   -0.0244418       -3.024626
0.204                -0.02470452       -3.080875
0.208                -0.02493229       -3.137074
0.212                -0.02512344       -3.193237
0.216                -0.02527787       -3.249376
0.22                 -0.02539596       -3.305507
0.224                  -0.025475       -3.361643
0.228                -0.02551744       -3.417799
0.232                -0.02552209        -3.47399
0.236                -0.02548723        -3.53023
0.24                  -0.0254153       -3.586534
0.244                -0.02530508       -3.642916
0.248                -0.02515795       -3.699391
0.252                -0.02497321       -3.755973
0.256                -0.02475221       -3.812675
0.26                 -0.02449579       -3.869514
0.264                -0.02420375       -3.926502
0.268                 -0.0238769       -3.983652
0.272                -0.02351712       -4.040979
0.276                -0.02312523       -4.098493
0.28                 -0.02270149        -4.15621
0.284                 -0.0222478       -4.214139
0.288                -0.02176546       -4.272293
0.292                -0.02125631       -4.330684
0.296                -0.02072169       -4.389321
0.3                  -0.02016241       -4.448215
0.304                -0.01958031       -4.507375
0.308                -0.01897774        -4.56681
0.312                -0.01835761       -4.626529
0.316                -0.01771865       -4.686539
0.32                 -0.01706477       -4.746847
0.324                -0.01639837       -4.807459
0.328                -0.01571922       -4.868381
0.332                -0.01503127       -4.929618
0.336                -0.01433691       -4.991174
0.34                 -0.01363749       -5.053053
0.344                 -0.0129349       -5.115257
0.348                -0.01223103       -5.177789
0.352                -0.01152884       -5.240648
0.356                 -0.0108297       -5.303836
0.36                 -0.01013656       -5.367353
0.364               -0.009450851       -5.431198
0.368               -0.008775553       -5.495368
0.372               -0.008111044       -5.559861
0.376               -0.007461386       -5.624674
0.38                -0.006826448       -5.689804
0.384               -0.006209811       -5.755244
0.388               -0.005611921        -5.82099
0.392               -0.005036861       -5.887035
0.396               -0.004485605       -5.953375
0.4                 -0.003958161           -6.02
0.404               -0.003458635       -6.086904
0.408                -0.00298706       -6.154076
0.412               -0.002544985       -6.221509
0.416               -0.002134514       -6.289193
0.42                -0.001755713       -6.357118
0.424               -0.001412788       -6.425273
0.428               -0.001103227       -6.493647
0.432              -0.0008307202       -6.562231
0.436              -0.0005959543       -6.631009
0.44               -0.0003979716       -6.699973
0.444              -0.0002395277       -6.769108
0.448               -0.000119713       -6.838404
0.452               -3.92389e-05       -6.907845
0.456              -3.383266e-07        -6.97742
0.46               -1.150682e-06       -7.047116
0.464               -4.33913e-05        -7.11692
0.468              -0.0001262805       -7.186817
0.472              -0.0002505348       -7.256797
0.476              -0.0004148757       -7.326842
0.48               -0.0006194692       -7.396944
0.484              -0.0008635801       -7.467086
0.488               -0.001148454        -7.53726
0.492               -0.001470795       -7.607447
0.496               -0.001831868       -7.677638
0.5                 -0.002229835       -7.747822
0.504               -0.002663963       -7.817985
0.508               -0.003135048       -7.888117
0.512               -0.003638132       -7.958205
0.516               -0.004174028        -8.02824
0.52                -0.004742482       -8.098212
0.524               -0.005340114        -8.16811
0.528               -0.005966664       -8.237925
0.532               -0.006619754        -8.30765
0.536               -0.007297562       -8.377276
0.54                -0.007998786       -8.446794
0.544               -0.008721539         -8.5162
0.548               -0.009463408       -8.585486
0.552                -0.01022356       -8.654649
0.556                -0.01099855       -8.723681
0.56                   -0.011788        -8.79258
0.564                -0.01258685       -8.861343
0.568                -0.01339573       -8.929968
0.572                -0.01421165       -8.998453
0.576                -0.01503159       -9.066796
0.58                 -0.01585451       -9.134999
0.584                -0.01667736       -9.203062
0.588                -0.01749758       -9.270986
0.592                -0.01831407       -9.338775
0.596                -0.01912371       -9.406431
0.6                  -0.01992434       -9.473959
0.604                -0.02071379       -9.541364
0.608                -0.02149038       -9.608653
0.612                -0.02225039       -9.675828
0.616                -0.02299404       -9.742904
0.62                 -0.02371816       -9.809883
0.624                -0.02442091       -9.876776
0.628                -0.02509888       -9.943593
0.632                -0.02575239       -10.01034
0.636                -0.02637842       -10.07704
0.64                 -0.02697575       -10.14369
0.644                -0.02754238       -10.21032
0.648                -0.02807688       -10.27692
0.652                -0.02857732       -10.34353
0.656                -0.02904429       -10.41014
0.66                 -0.02947472       -10.47678
0.664                -0.02986712       -10.54346
0.668                -0.03022199       -10.61019
0.672                -0.03053682         -10.677
0.676                -0.03081249       -10.74389
0.68                 -0.03104696        -10.8109
0.684                 -0.0312407       -10.87802
0.688                -0.03139158       -10.94528
0.692                -0.03150205        -11.0127
0.696                -0.03156947        -11.0803
0.7                  -0.03159518       -11.14809
0.704                 -0.0315791       -11.21609
0.708                -0.03152115       -11.28431
0.712                -0.03142161       -11.35279
0.716                -0.03128197       -11.42152
0.72                 -0.03110148       -11.49054
0.724                -0.03088213       -11.55985
0.728                -0.03062367       -11.62948
0.732                -0.03032759       -11.69943
0.736                 -0.0299957       -11.76974
0.74                 -0.02962841       -11.84041
0.744                -0.02922713       -11.91146
0.748                -0.02879425       -11.98291
0.752                -0.02833122       -12.05476
0.756                -0.02783793       -12.12704
0.76                 -0.02731934       -12.19975
0.764                -0.02677438       -12.27292
0.768                -0.02620712       -12.34654
0.772                -0.02561895       -12.42064
0.776                -0.02501087       -12.49522
0.78                 -0.02438651        -12.5703
0.784                -0.02374834       -12.64588
0.788                -0.02309903       -12.72198
0.792                 -0.0224385       -12.79859
0.796                -0.02177151       -12.87573
0.8                  -0.02110065       -12.95341
0.804                -0.02042816       -13.03162
0.808                -0.01975562       -13.11038
0.812                -0.01908737       -13.18968
0.816                -0.01842411       -13.26953
0.82                 -0.01776957       -13.34994
0.824                -0.01712665       -13.43089
0.828                -0.01649711       -13.51239
0.832                -0.01588388       -13.59445
0.836                -0.01529087       -13.67706
0.84                 -0.01471846       -13.76021
0.844                -0.01417009        -13.8439
0.848                -0.01364887       -13.92813
0.852                 -0.0131557        -14.0129
0.856                -0.01269367       -14.09819
0.86                  -0.0122655         -14.184
0.864                -0.01187362       -14.27032
0.868                -0.01151933       -14.35715
0.872                -0.01120419       -14.44447
0.876                -0.01093296       -14.53228
0.88                 -0.01070388       -14.62056
0.884                 -0.0105196       -14.70931
0.888                -0.01038423        -14.7985
0.892                -0.01029614       -14.88815
0.896                -0.01025859       -14.97821
0.9                  -0.01027325       -15.06869
0.904                  -0.010339       -15.15957
0.908                -0.01045929       -15.25084
0.912                -0.01063341       -15.34249
0.916                -0.01086304       -15.43449
0.92                 -0.01114899       -15.52684
0.924                -0.01149177       -15.61951
0.928                -0.01188986        -15.7125
0.932                -0.01234581       -15.80579
0.936                -0.01285905       -15.89936
0.94                 -0.01342754        -15.9932
0.944                 -0.0140538        -16.0873
0.948                -0.01473582       -16.18163
0.952                 -0.0154743       -16.27619
0.956                -0.01626805       -16.37096
0.96                 -0.01711609       -16.46593
0.964                -0.01801733       -16.56108
0.968                -0.01896927       -16.65639
0.972                -0.01997388       -16.75187
0.976                -0.02102821       -16.84748
0.98                 -0.02212983       -16.94323
0.984                 -0.0232796        -17.0391
0.988                -0.02447331       -17.13508
0.992                -0.02570955       -17.23116
0.996                -0.02698767       -17.32732
1                    -0.02830438       -17.42357
1.004                -0.02965776       -17.51989
1.008                -0.03104511       -17.61628
1.012                -0.03246535       -17.71273
1.016                -0.03391509       -17.80924
1.02                  -0.0353917       -17.90579
1.024                -0.03689387       -18.00237
1.028                -0.03841727       -18.09904
1.032                -0.03995996       -18.19572
1.036                -0.04151922       -18.29246
1.04                 -0.04309282       -18.38926
1.044                -0.04467729       -18.48606
1.048                -0.04626948       -18.58294
1.052                 -0.0478669       -18.67987
1.056                -0.04946631       -18.77686
1.06                  -0.0510661       -18.87393
1.064                -0.05266212       -18.97106
1.068                -0.05425266       -19.06827
1.072                -0.05583391       -19.16558
1.076                -0.05740423       -19.26301
1.08                  -0.0589594       -19.36054
1.084                -0.06049797       -19.45819
1.088                 -0.0620172         -19.556
1.092                -0.06351491       -19.65397
1.096                -0.06498834       -19.75208
1.1                  -0.06643486       -19.85041
1.104                -0.06785262       -19.94898
1.108                   -0.06924       -20.04774
1.112                 -0.0705942       -20.14675
1.116                -0.07191368       -20.24606
1.12                 -0.07319654       -20.34565
1.124                -0.07444231       -20.44556
1.128                -0.07564956       -20.54581
1.132                -0.07681455       -20.64643
1.136                -0.07793789       -20.74743
1.14                 -0.07901935       -20.84886
1.144                -0.08005739       -20.95073
1.148                 -0.0810516       -21.05307
1.152                -0.08200154        -21.1559
1.156                -0.08290538       -21.25926
1.16                 -0.08376565       -21.36317
1.164                -0.08458083       -21.46767
1.168                -0.08535279       -21.57277
1.172                -0.08607977        -21.6785
1.176                -0.08676472       -21.78491
1.18                 -0.08740668       -21.89201
1.184                -0.08800845       -21.99983
1.188                -0.08856908        -22.1084
1.192                -0.08909189       -22.21775
1.196                -0.08957771       -22.32791
1.2                  -0.09002918        -22.4389
1.204                -0.09044823       -22.55075
1.208                 -0.0908355        -22.6635
1.212                -0.09119497       -22.77715
1.216                 -0.0915279       -22.89175
1.22                 -0.09183809       -23.00731
1.224                -0.09212905       -23.12387
1.228                -0.09240155       -23.24143
1.232                -0.09265975       -23.36003
1.236                -0.09290769       -23.47969
1.24                 -0.09314956       -23.60043
1.244                -0.09338622       -23.72226
1.248                -0.09362338       -23.84522
1.252                 -0.0938631       -23.96931
1.256                -0.09411199       -24.09456
1.26                 -0.09437078       -24.22097
1.264                -0.09464688       -24.34857
1.268                -0.09494143       -24.47737
1.272                -0.09526124       -24.60739
1.276                -0.09560811       -24.73862
1.28                 -0.09598787       -24.87109
1.284                -0.09640382        -25.0048
1.288                -0.09686194       -25.13976
1.292                -0.09736429       -25.27597
1.296                -0.09791741       -25.41346
1.3                  -0.09852507       -25.55221
1.304                -0.09919094       -25.69223
1.308                -0.09991971       -25.83352
1.312                 -0.1007163       -25.97609
1.316                 -0.1015842       -26.11993
1.32                  -0.1025267       -26.26505
1.324                 -0.1035498       -26.41143
1.328                  -0.104656       -26.55908
1.332                 -0.1058505       -26.70799
1.336                 -0.1071359       -26.85816
1.34                  -0.1085174       -27.00958
1.344                 -0.1099973       -27.16224
1.348                   -0.11158       -27.31613
1.352                 -0.1132669       -27.47125
1.356                 -0.1150637       -27.62758
1.36                  -0.1169731       -27.78512
1.364                  -0.118997       -27.94385
1.368                 -0.1211385       -28.10376
1.372                 -0.1234007       -28.26484
1.376                 -0.1257851       -28.42708
1.38                  -0.1282952       -28.59046
1.384                 -0.1309324       -28.75496
1.388                 -0.1336985       -28.92059
1.392                 -0.1365954       -29.08731
1.396                 -0.1396246       -29.25513
1.4                   -0.1427871         -29.424
1.404                 -0.1460838       -29.59395
1.408                 -0.1495179       -29.76493
1.412                 -0.1530862       -29.93695
1.416                 -0.1567934       -30.10998
1.42                   -0.160637       -30.28401
1.424                 -0.1646171       -30.45903
1.428                 -0.1687358       -30.63504
1.432                 -0.1729909       -30.81201
1.436                 -0.1773826       -30.98993
1.44                  -0.1819115        -31.1688
1.444                  -0.186574        -31.3486
1.448                 -0.1913706       -31.52932
1.452                 -0.1963009       -31.71097
1.456                 -0.2013635       -31.89353
1.46                  -0.2065554         -32.077
1.464                 -0.2118762       -32.26136
1.468                 -0.2173231       -32.44663
1.472                 -0.2228947        -32.6328
1.476                 -0.2285894       -32.81986
1.48                  -0.2344041       -33.00783
1.484                 -0.2403371       -33.19669
1.488                 -0.2463855       -33.38647
1.492                 -0.2525484       -33.57716
1.496                   -0.25882       -33.76878
1.5                   -0.2652005       -33.96132
1.504                 -0.2716871       -34.15482
1.508                 -0.2782759       -34.34927
1.512                  -0.284964        -34.5447
1.516                 -0.2917484       -34.74112
1.52                  -0.2986284       -34.93856
1.524                 -0.3055992       -35.13703
1.528                 -0.3126597       -35.33656
1.532                 -0.3198057       -35.53718
1.536                 -0.3270347       -35.73892
1.54                  -0.3343461       -35.94181
1.544                 -0.3417355       -36.14586
1.548                 -0.3492009       -36.35114
1.552                  -0.356741       -36.55767
1.556                 -0.3643542       -36.76549
1.56                  -0.3720363       -36.97465
1.564                 -0.3797875       -37.18518
1.568                 -0.3876058       -37.39714
1.572                 -0.3954904       -37.61058
1.576                 -0.4034402       -37.82553
1.58                  -0.4114534       -38.04206
1.584                 -0.4195305       -38.26022
1.588                 -0.4276727       -38.48008
1.592                 -0.4358768       -38.70166
1.596                 -0.4441467       -38.92506
1.6                   -0.4524805       -39.15034
1.604                 -0.4608807       -39.37753
1.608                 -0.4693474       -39.60673
1.612                 -0.4778842       -39.83799
1.616                 -0.4864927       -40.07139
1.62                  -0.4951745       -40.30697
1.624                 -0.5039328       -40.54484
1.628                 -0.5127744       -40.78506
1.632                 -0.5216975       -41.02768
1.636                  -0.530711       -41.27281
1.64                   -0.539817       -41.52051
1.644                 -0.5490223       -41.77085
1.648                 -0.5583319       -42.02392
1.652                 -0.5677524       -42.27978
1.656                 -0.5772901       -42.53852
1.66                   -0.586952       -42.80022
1.664                 -0.5967465       -43.06495
1.668                 -0.6066804        -43.3328
1.672                 -0.6167636       -43.60384
1.676                 -0.6270042       -43.87816
1.68                  -0.6374124       -44.15583
1.684                 -0.6479972       -44.43692
1.688                 -0.6587727       -44.72153
1.692                 -0.6697454       -45.00972
1.696                 -0.6809279       -45.30157
1.7                    -0.692334       -45.59716
1.704                 -0.7039771       -45.89658
1.708                  -0.715867       -46.19987
1.712                 -0.7280189       -46.50714
1.716                 -0.7404465       -46.81844
1.72                  -0.7531639       -47.13386
1.724                  -0.766187       -47.45346
1.728                 -0.7795294       -47.77729
1.732                 -0.7932107       -48.10547
1.736                 -0.8072419       -48.43801
1.74                  -0.8216418         -48.775
1.744                 -0.8364292       -49.11652
1.748                  -0.851619       -49.46261
1.752                 -0.8672308       -49.81334
1.756                 -0.8832815       -50.16877
1.76                  -0.8997906       -50.52896
1.764                 -0.9167765       -50.89396
1.768                 -0.9342598       -51.26381
1.772                 -0.9522588        -51.6386
1.776                  -0.970794       -52.01836
1.78                  -0.9898866       -52.40313
1.784                  -1.009556       -52.79297
1.788                  -1.029824       -53.18793
1.792                  -1.050712       -53.58805
1.796                  -1.072241       -53.99337
1.8                    -1.094434       -54.40392
1.804                  -1.117314       -54.81978
1.808                    -1.1409       -55.24094
1.812                   -1.16522       -55.66747
1.816                  -1.190293       -56.09938
1.82                   -1.216144       -56.53674
1.824                  -1.242796       -56.97955
1.828                  -1.270274       -57.42784
1.832                  -1.298603       -57.88168
1.836                  -1.327804       -58.34105
1.84                   -1.357905         -58.806
1.844                  -1.388931       -59.27657
1.848                  -1.420906       -59.75277
1.852                  -1.453854       -60.23463
1.856                  -1.487806       -60.72216
1.86                   -1.522785       -61.21543
1.864                  -1.558816       -61.71441
1.868                  -1.595927       -62.21915
1.872                  -1.634146       -62.72968
1.876                  -1.673499         -63.246
1.88                   -1.714015       -63.76816
1.884                   -1.75572       -64.29616
1.888                  -1.798644       -64.83004
1.892                  -1.842815       -65.36982
1.896                  -1.888263       -65.91551
1.9                    -1.935016       -66.46716
1.904                  -1.983104       -67.02479
1.908                  -2.032558       -67.58842
1.912                  -2.083406       -68.15807
1.916                  -2.135683       -68.73378
1.92                   -2.189417       -69.31558
1.924                  -2.244643       -69.90353
1.928                  -2.301391       -70.49762
1.932                  -2.359698       -71.09793
1.936                  -2.419592       -71.70446
1.94                   -2.481111       -72.31729
1.944                  -2.544289       -72.93644
1.948                  -2.609161       -73.56197
1.952                  -2.675765       -74.19395
1.956                  -2.744134       -74.83241
1.96                   -2.814309        -75.4774
1.964                  -2.886328       -76.12904
1.968                  -2.960231       -76.78735
1.972                  -3.036057       -77.45244
1.976                  -3.113847       -78.12437
1.98                   -3.193645       -78.80322
1.984                  -3.275491       -79.48912
1.988                  -3.359431       -80.18214
1.992                  -3.445512       -80.88241
1.996                  -3.533779       -81.59003
2                      -3.624281       -82.30515
2.004                  -3.717067        -83.0279
2.008                  -3.812185        -83.7584
2.012                  -3.909692       -84.49685
2.016                  -4.009638       -85.24339
2.02                   -4.112081       -85.99824
2.024                  -4.217076       -86.76155
2.028                  -4.324683       -87.53356
2.032                  -4.434963       -88.31449
2.036                  -4.547979       -89.10458
2.04                   -4.663795       -89.90412
2.044                   -4.78248       -90.71339
2.048                  -4.904102       -91.53269
2.052                  -5.028734       -92.36234
2.056                  -5.156449       -93.20269
2.06                   -5.287327       -94.05417
2.064                  -5.421445       -94.91718
2.068                  -5.558888       -95.79216
2.072                  -5.699741       -96.67959
2.076                  -5.844093          -97.58
2.08                   -5.992036       -98.49396
2.084                  -6.143667       -99.42209
2.088                  -6.299084        -100.365
2.092                  -6.458391       -101.3236
2.096                  -6.621694       -102.2984
2.1                    -6.789104       -103.2904
2.104                  -6.960734       -104.3006
2.108                  -7.136704       -105.3298
2.112                  -7.317134       -106.3792
2.116                  -7.502151       -107.4501
2.12                   -7.691884       -108.5435
2.124                  -7.886465       -109.6611
2.128                  -8.086031       -110.8043
2.132                  -8.290719       -111.9749
2.136                  -8.500672       -113.1746
2.14                   -8.716029       -114.4055
2.144                  -8.936933       -115.6698
2.148                  -9.163526       -116.9699
2.152                  -9.395944       -118.3085
2.156                   -9.63432       -119.6886
2.16                    -9.87878       -121.1134
2.164                  -10.12944       -122.5863
2.168                  -10.38638       -124.1114
2.172                   -10.6497        -125.693
2.176                  -10.91943       -127.3357
2.18                   -11.19558       -129.0449
2.184                  -11.47812       -130.8262
2.188                  -11.76694       -132.6859
2.192                  -12.06187        -134.631
2.196                  -12.36264       -136.6688
2.2                    -12.66885       -138.8077
2.204                  -12.97996       -141.0563
2.208                  -13.29525       -143.4242
2.212                  -13.61378       -145.9213
2.216                  -13.93435        -148.558
2.22                   -14.25543        -151.345
2.224                  -14.57516       -154.2928
2.228                  -14.89125       -157.4116
2.232                  -15.20096       -160.7104
2.236                  -15.50108       -164.1964
2.24                    -15.7879        -167.874
2.244                  -16.05729       -171.7442
2.248                  -16.30475       -175.8027
2.252                  -16.52556        179.9605
2.256                  -16.71503         175.562
2.26                   -16.86878        171.0259
2.264                  -16.98303        166.3828
2.268                  -17.05492        161.6695
2.272                  -17.08279         156.927
2.276                  -17.06633         152.198
2.28                   -17.00664        147.5244
2.284                  -16.90605        142.9452
2.288                  -16.76799        138.4939
2.292                  -16.59661        134.1974
2.296                   -16.3965        130.0756
2.3                     -16.1724        126.1414
2.304                  -15.92891        122.4012
2.308                  -15.67034        118.8564
2.312                  -15.40058        115.5039
2.316                  -15.12307        112.3376
2.32                   -14.84073         109.349
2.324                  -14.55605        106.5286
2.328                  -14.27106        103.8659
2.332                  -13.98742        101.3503
2.336                  -13.70647        98.97112
2.34                   -13.42925        96.71825
2.344                  -13.15657        94.58201
2.348                  -12.88903        92.55331
2.352                  -12.62709        90.62374
2.356                  -12.37106        88.78546
2.36                   -12.12116        87.03137
2.364                   -11.8775        85.35489
2.368                  -11.64015        83.75007
2.372                  -11.40912        82.21149
2.376                  -11.18436        80.73418
2.38                    -10.9658         79.3137
2.384                  -10.75336        77.94592
2.388                  -10.54691        76.62719
2.392                  -10.34634         75.3541
2.396                   -10.1515        74.12363
2.4                    -9.962267        72.93299
2.404                  -9.778476        71.77961