! TOUCHSTONE file generated by CST MICROWAVE STUDIO
! Date and time: Fri May  6 09:22:53 2022
! Project name: ant1_ceramic_sweep_10porcent.cst
! Parameters = {e=0.035; h=1.6; i=0.8; l1=0.5; l2=17; ls=79.2; wl=1.7; ws=30}
! Header version: 2018
! Port assignment regex: !\s*Touchstone port\s*([0-9]+)\s*=\s*(CST MWS port|CST DS port)\s*([0-9]+|Zmin|Zmax)\s*\(\"(.*)\"\)(\s*mode\s*([0-9]+))?.*
! Touchstone port assignment:
! Touchstone port 1 = CST MWS port 1 ("")
# GHz S DB R 50
0                  -0.0001221826              -0
0.004              -0.0001360301     -0.06017691
0.008              -0.0001749867      -0.1203458
0.012              -0.0002400962      -0.1804985
0.016              -0.0003308546       -0.240627
0.02               -0.0004472814      -0.3007235
0.024              -0.0005894009      -0.3607801
0.028              -0.0007556902      -0.4207889
0.032              -0.0009467016      -0.4807425
0.036               -0.001162993      -0.5406333
0.04                -0.001400467      -0.6004539
0.044               -0.001662796      -0.6601975
0.048               -0.001947446      -0.7198569
0.052               -0.002252403      -0.7794255
0.056               -0.002577728      -0.8388969
0.06                -0.002923485       -0.898265
0.064               -0.003289225      -0.9575238
0.068               -0.003671394       -1.016668
0.072               -0.004072135       -1.075692
0.076                 -0.0044879       -1.134591
0.08                -0.004918247        -1.19336
0.084               -0.005363256       -1.251996
0.088                -0.00582197       -1.310494
0.092                -0.00629136       -1.368851
0.096                -0.00677151       -1.427063
0.1                 -0.007259907       -1.485128
0.104               -0.007756633       -1.543045
0.108               -0.008260213        -1.60081
0.112               -0.008768652       -1.658423
0.116               -0.009282544       -1.715882
0.12                 -0.00979782       -1.773187
0.124                -0.01031558       -1.830338
0.128                -0.01083228       -1.887335
0.132                 -0.0113485        -1.94418
0.136                 -0.0118617       -2.000872
0.14                 -0.01237247       -2.057415
0.144                 -0.0128762       -2.113809
0.148                -0.01337397       -2.170057
0.152                -0.01386427       -2.226163
0.156                -0.01434559        -2.28213
0.16                 -0.01481589       -2.337962
0.164                -0.01527468       -2.393662
0.168                -0.01572096       -2.449237
0.172                -0.01615369       -2.504689
0.176                -0.01657186       -2.560026
0.18                  -0.0169734       -2.615253
0.184                 -0.0173578       -2.670376
0.188                -0.01772348       -2.725401
0.192                -0.01807044       -2.780336
0.196                -0.01839761       -2.835188
0.2                  -0.01870395       -2.889964
0.204                -0.01898837       -2.944671
0.208                -0.01924979       -2.999318
0.212                -0.01948974       -3.053914
0.216                  -0.019704       -3.108466
0.22                 -0.01989562       -3.162984
0.224                -0.02006144       -3.217476
0.228                -0.02020189       -3.271952
0.232                -0.02031691        -3.32642
0.236                -0.02040483        -3.38089
0.24                 -0.02046765       -3.435372
0.244                -0.02050474       -3.489876
0.248                -0.02051343       -3.544409
0.252                -0.02049669       -3.598983
0.256                -0.02045287       -3.653607
0.26                  -0.0203834       -3.708291
0.264                -0.02028661       -3.763043
0.268                -0.02016391       -3.817875
0.272                -0.02001569       -3.872795
0.276                 -0.0198413       -3.927812
0.28                 -0.01964266       -3.982936
0.284                -0.01941963       -4.038177
0.288                -0.01917258       -4.093543
0.292                -0.01890084       -4.149042
0.296                -0.01860788       -4.204683
0.3                  -0.01829252       -4.260475
0.304                -0.01795667       -4.316426
0.308                -0.01759964       -4.372543
0.312                -0.01722335       -4.428834
0.316                -0.01682971       -4.485306
0.32                 -0.01641805       -4.541967
0.324                -0.01598976        -4.59882
0.328                -0.01554673       -4.655877
0.332                -0.01508986       -4.713139
0.336                -0.01461899       -4.770613
0.34                 -0.01413706       -4.828304
0.344                -0.01364495       -4.886218
0.348                -0.01314407       -4.944357
0.352                -0.01263478       -5.002726
0.356                -0.01211953       -5.061328
0.36                 -0.01159816       -5.120167
0.364                -0.01107418       -5.179244
0.368                -0.01054641       -5.238561
0.372                -0.01001784       -5.298121
0.376                 -0.0094909       -5.357925
0.38                -0.008964462       -5.417972
0.384               -0.008442034       -5.478265
0.388               -0.007924031       -5.538801
0.392                 -0.0074119        -5.59958
0.396               -0.006906074       -5.660602
0.4                 -0.006410596       -5.721865
0.404                -0.00592436       -5.783366
0.408               -0.005448324       -5.845104
0.412               -0.004985552       -5.907075
0.416               -0.004537526       -5.969276
0.42                -0.004104209       -6.031703
0.424               -0.003686077       -6.094353
0.428               -0.003285687       -6.157221
0.432                -0.00290459       -6.220302
0.436               -0.002543282        -6.28359
0.44                -0.002201762       -6.347081
0.444               -0.001881084       -6.410767
0.448               -0.001583335       -6.474644
0.452               -0.001310076       -6.538705
0.456               -0.001059315       -6.602942
0.46               -0.0008352029        -6.66735
0.464              -0.0006352444       -6.731918
0.468              -0.0004620401       -6.796643
0.472              -0.0003157079       -6.861515
0.476               -0.000195797       -6.926526
0.48               -0.0001049921       -6.991669
0.484              -4.183323e-05       -7.056935
0.488              -6.424134e-06       -7.122316
0.492               8.203177e-08       -7.187804
0.496              -2.190875e-05       -7.253391
0.5                -7.411657e-05       -7.319066
0.504              -0.0001540449       -7.384823
0.508              -0.0002628803       -7.450653
0.512              -0.0004007553       -7.516548
0.516              -0.0005663027       -7.582498
0.52               -0.0007601815       -7.648495
0.524               -0.000983039       -7.714533
0.528               -0.001233493       -7.780602
0.532               -0.001509655       -7.846693
0.536               -0.001813197       -7.912802
0.54                -0.002141767       -7.978916
0.544               -0.002496499       -8.045033
0.548               -0.002874503       -8.111141
0.552               -0.003276906       -8.177237
0.556               -0.003701322       -8.243314
0.56                -0.004148961       -8.309363
0.564               -0.004616347       -8.375379
0.568                -0.00510305       -8.441359
0.572               -0.005609303       -8.507293
0.576                -0.00613413       -8.573182
0.58                -0.006675136       -8.639016
0.584                -0.00722932       -8.704791
0.588               -0.007799888       -8.770507
0.592               -0.008381226       -8.836159
0.596               -0.008975045       -8.901743
0.6                 -0.009578296       -8.967258
0.604                -0.01019055         -9.0327
0.608                -0.01080975       -9.098071
0.612                -0.01143446       -9.163366
0.616                -0.01206466       -9.228589
0.62                 -0.01269578       -9.293734
0.624                -0.01332983       -9.358807
0.628                -0.01396272       -9.423806
0.632                -0.01459542       -9.488735
0.636                -0.01522434       -9.553592
0.64                 -0.01584781       -9.618382
0.644                -0.01646631       -9.683109
0.648                -0.01707661       -9.747776
0.652                -0.01767821       -9.812383
0.656                -0.01827086       -9.876942
0.66                 -0.01885041        -9.94145
0.664                -0.01941712       -10.00592
0.668                -0.01996932       -10.07035
0.672                -0.02050683       -10.13475
0.676                -0.02102582       -10.19913
0.68                 -0.02152863        -10.2635
0.684                -0.02201099       -10.32785
0.688                -0.02247304       -10.39221
0.692                -0.02291408       -10.45658
0.696                -0.02333223       -10.52096
0.7                  -0.02372772       -10.58538
0.704                -0.02409822       -10.64982
0.708                -0.02444435       -10.71432
0.712                -0.02476479       -10.77887
0.716                -0.02505813       -10.84349
0.72                 -0.02532505       -10.90819
0.724                -0.02556408       -10.97298
0.728                -0.02577384       -11.03787
0.732                -0.02595599       -11.10287
0.736                -0.02610959       -11.16799
0.74                 -0.02623473       -11.23325
0.744                -0.02632944       -11.29865
0.748                -0.02639527       -11.36421
0.752                -0.02643185       -11.42995
0.756                 -0.0264387       -11.49586
0.76                 -0.02641789       -11.56197
0.764                -0.02636642       -11.62829
0.768                -0.02628843       -11.69482
0.772                -0.02618142       -11.76158
0.776                -0.02604691       -11.82859
0.78                 -0.02588545       -11.89585
0.784                -0.02569815       -11.96337
0.788                 -0.0254835       -12.03116
0.792                -0.02524608       -12.09925
0.796                 -0.0249835       -12.16763
0.8                  -0.02469923       -12.23632
0.804                -0.02439195       -12.30533
0.808                -0.02406411       -12.37466
0.812                 -0.0237159       -12.44433
0.816                -0.02334986       -12.51435
0.82                 -0.02296612       -12.58473
0.824                -0.02256674       -12.65547
0.828                -0.02215243       -12.72658
0.832                 -0.0217258       -12.79807
0.836                -0.02128639       -12.86994
0.84                 -0.02083746       -12.94221
0.844                -0.02037967       -13.01488
0.848                 -0.0199152       -13.08796
0.852                -0.01944525       -13.16144
0.856                  -0.018972       -13.23535
0.86                 -0.01849575       -13.30966
0.864                -0.01801963       -13.38441
0.868                -0.01754452       -13.45958
0.872                -0.01707316       -13.53518
0.876                -0.01660682       -13.61121
0.88                 -0.01614691       -13.68768
0.884                -0.01569518       -13.76457
0.888                -0.01525294       -13.84191
0.892                -0.01482368       -13.91968
0.896                -0.01440776       -13.99788
0.9                  -0.01400704       -14.07651
0.904                -0.01362292       -14.15557
0.908                -0.01325749       -14.23506
0.912                -0.01291311       -14.31498
0.916                -0.01258932       -14.39532
0.92                 -0.01229012       -14.47608
0.924                -0.01201444       -14.55726
0.928                -0.01176597       -14.63884
0.932                -0.01154568       -14.72084
0.936                -0.01135383       -14.80322
0.94                 -0.01119266       -14.88601
0.944                -0.01106263       -14.96918
0.948                -0.01096628       -15.05273
0.952                -0.01090268       -15.13665
0.956                -0.01087612       -15.22094
0.96                 -0.01088428       -15.30559
0.964                -0.01092975       -15.39059
0.968                -0.01101334       -15.47593
0.972                -0.01113526        -15.5616
0.976                -0.01129662        -15.6476
0.98                  -0.0114969       -15.73391
0.984                -0.01173918       -15.82053
0.988                -0.01202081       -15.90745
0.992                 -0.0123451       -15.99465
0.996                -0.01270914       -16.08213
1                    -0.01311597       -16.16989
1.004                -0.01356384       -16.25789
1.008                -0.01405323       -16.34616
1.012                -0.01458486       -16.43466
1.016                 -0.0151568       -16.52339
1.02                  -0.0157704       -16.61234
1.024                -0.01642445       -16.70152
1.028                 -0.0171184       -16.79086
1.032                -0.01785321       -16.88045
1.036                -0.01862567       -16.97019
1.04                 -0.01943767       -17.06011
1.044                -0.02028705       -17.15021
1.048                -0.02117179       -17.24048
1.052                -0.02209359       -17.33088
1.056                -0.02304893       -17.42145
1.06                  -0.0240391       -17.51216
1.064                -0.02506089         -17.603
1.068                -0.02611345       -17.69395
1.072                -0.02719527       -17.78504
1.076                -0.02830693       -17.87626
1.08                 -0.02944424       -17.96757
1.084                -0.03060779       -18.05898
1.088                -0.03179513       -18.15054
1.092                -0.03300347       -18.24219
1.096                -0.03423381       -18.33394
1.1                  -0.03548322       -18.42579
1.104                -0.03674795       -18.51772
1.108                -0.03802885       -18.60977
1.112                -0.03932419       -18.70195
1.116                -0.04062995       -18.79418
1.12                 -0.04194593       -18.88653
1.124                -0.04327073       -18.97901
1.128                -0.04460132       -19.07157
1.132                -0.04593722       -19.16426
1.136                -0.04727352       -19.25706
1.14                 -0.04861178       -19.34999
1.144                 -0.0499487       -19.44304
1.148                -0.05128243       -19.53624
1.152                -0.05261079       -19.62957
1.156                -0.05393352       -19.72306
1.16                 -0.05524806       -19.81672
1.164                -0.05655123       -19.91054
1.168                -0.05784277       -20.00454
1.172                -0.05912202       -20.09873
1.176                -0.06038648       -20.19313
1.18                 -0.06163361       -20.28775
1.184                -0.06286302       -20.38259
1.188                -0.06407303       -20.47767
1.192                -0.06526381       -20.57301
1.196                -0.06643172       -20.66863
1.2                   -0.0675766       -20.76453
1.204                -0.06869854       -20.86073
1.208                -0.06979487       -20.95725
1.212                -0.07086495        -21.0541
1.216                -0.07190955        -21.1513
1.22                   -0.072926       -21.24888
1.224                -0.07391566       -21.34684
1.228                -0.07487623       -21.44521
1.232                -0.07580827         -21.544
1.236                -0.07671185       -21.64324
1.24                 -0.07758575       -21.74293
1.244                -0.07843066       -21.84311
1.248                -0.07924667        -21.9438
1.252                -0.08003445         -22.045
1.256                -0.08079326       -22.14674
1.26                  -0.0815239       -22.24905
1.264                -0.08222734       -22.35193
1.268                -0.08290299       -22.45542
1.272                -0.08355417       -22.55952
1.276                -0.08417937       -22.66427
1.28                 -0.08478063       -22.76968
1.284                -0.08535937       -22.87577
1.288                -0.08591594       -22.98255
1.292                -0.08645297       -23.09006
1.296                -0.08697037        -23.1983
1.3                   -0.0874721        -23.3073
1.304                -0.08795733       -23.41708
1.308                -0.08842842       -23.52764
1.312                -0.08888923       -23.63902
1.316                 -0.0893391       -23.75122
1.32                 -0.08978191       -23.86427
1.324                -0.09022048       -23.97817
1.328                 -0.0906543       -24.09295
1.332                 -0.0910884       -24.20863
1.336                -0.09152461       -24.32521
1.34                 -0.09196426        -24.4427
1.344                 -0.0924119       -24.56113
1.348                -0.09286923       -24.68051
1.352                -0.09333802       -24.80084
1.356                -0.09382183       -24.92215
1.36                 -0.09432413       -25.04443
1.364                 -0.0948474        -25.1677
1.368                -0.09539516       -25.29198
1.372                -0.09596948       -25.41725
1.376                -0.09657197       -25.54355
1.38                 -0.09720916       -25.67087
1.384                -0.09788059       -25.79922
1.388                -0.09859262        -25.9286
1.392                -0.09934468       -26.05903
1.396                 -0.1001437        -26.1905
1.4                   -0.1009887       -26.32301
1.404                 -0.1018852       -26.45659
1.408                 -0.1028362       -26.59121
1.412                 -0.1038439       -26.72689
1.416                  -0.104911       -26.86362
1.42                   -0.106041       -27.00141
1.424                 -0.1072368       -27.14026
1.428                 -0.1085007       -27.28015
1.432                 -0.1098352        -27.4211
1.436                 -0.1112446        -27.5631
1.44                  -0.1127288       -27.70614
1.444                  -0.114293       -27.85023
1.448                 -0.1159389       -27.99535
1.452                  -0.117667       -28.14151
1.456                 -0.1194834       -28.28869
1.46                  -0.1213856        -28.4369
1.464                 -0.1233797       -28.58613
1.468                 -0.1254668       -28.73637
1.472                  -0.127648        -28.8876
1.476                 -0.1299246       -29.03984
1.48                  -0.1322999       -29.19307
1.484                 -0.1347744       -29.34728
1.488                 -0.1373503       -29.50246
1.492                  -0.140028       -29.65861
1.496                 -0.1428106       -29.81572
1.5                   -0.1456975       -29.97378
1.504                 -0.1486893       -30.13278
1.508                  -0.151789       -30.29272
1.512                 -0.1549961       -30.45359
1.516                 -0.1583131       -30.61537
1.52                  -0.1617367       -30.77807
1.524                 -0.1652707       -30.94168
1.528                 -0.1689137       -31.10618
1.532                 -0.1726659       -31.27157
1.536                 -0.1765292       -31.43785
1.54                  -0.1805023       -31.60501
1.544                 -0.1845833       -31.77304
1.548                 -0.1887753       -31.94195
1.552                 -0.1930755       -32.11172
1.556                 -0.1974843       -32.28235
1.56                  -0.2020005       -32.45384
1.564                 -0.2066232       -32.62619
1.568                 -0.2113544       -32.79939
1.572                 -0.2161879       -32.97345
1.576                 -0.2211285       -33.14836
1.58                  -0.2261708       -33.32413
1.584                 -0.2313164       -33.50076
1.588                 -0.2365623       -33.67825
1.592                 -0.2419074        -33.8566
1.596                 -0.2473509       -34.03582
1.6                   -0.2528919       -34.21593
1.604                 -0.2585285       -34.39692
1.608                 -0.2642575        -34.5788
1.612                 -0.2700799       -34.76159
1.616                 -0.2759934       -34.94529
1.62                  -0.2819957       -35.12991
1.624                 -0.2880855       -35.31548
1.628                 -0.2942632         -35.502
1.632                 -0.3005236       -35.68949
1.636                 -0.3068679       -35.87798
1.64                  -0.3132928       -36.06746
1.644                 -0.3197997       -36.25798
1.648                 -0.3263828       -36.44955
1.652                 -0.3330448       -36.64219
1.656                 -0.3397822       -36.83593
1.66                  -0.3465945       -37.03079
1.664                 -0.3534806        -37.2268
1.668                 -0.3604375         -37.424
1.672                 -0.3674691       -37.62241
1.676                  -0.374568       -37.82205
1.68                  -0.3817394       -38.02297
1.684                 -0.3889791        -38.2252
1.688                 -0.3962894       -38.42878
1.692                 -0.4036665       -38.63374
1.696                 -0.4111131       -38.84013
1.7                   -0.4186298       -39.04797
1.704                 -0.4262142       -39.25731
1.708                  -0.433869       -39.46821
1.712                 -0.4415931       -39.68069
1.716                 -0.4493907       -39.89481
1.72                  -0.4572582       -40.11061
1.724                 -0.4651996       -40.32812
1.728                 -0.4732173       -40.54742
1.732                 -0.4813102       -40.76854
1.736                 -0.4894849       -40.99154
1.74                  -0.4977389       -41.21646
1.744                 -0.5060786       -41.44335
1.748                 -0.5145038       -41.67228
1.752                 -0.5230195       -41.90329
1.756                 -0.5316311       -42.13644
1.76                  -0.5403373       -42.37177
1.764                 -0.5491469       -42.60936
1.768                 -0.5580624       -42.84925
1.772                 -0.5670885       -43.09151
1.776                 -0.5762295       -43.33617
1.78                   -0.585493       -43.58331
1.784                 -0.5948822       -43.83298
1.788                 -0.6044045       -44.08525
1.792                 -0.6140659       -44.34015
1.796                 -0.6238723       -44.59776
1.8                    -0.633833       -44.85813
1.804                  -0.643952       -45.12133
1.808                 -0.6542388       -45.38739
1.812                  -0.664702        -45.6564
1.816                 -0.6753483        -45.9284
1.82                  -0.6861859       -46.20344
1.824                 -0.6972267       -46.48159
1.828                 -0.7084775        -46.7629
1.832                 -0.7199481       -47.04743
1.836                 -0.7316496       -47.33524
1.84                  -0.7435915       -47.62637
1.844                  -0.755784       -47.92087
1.848                 -0.7682381       -48.21882
1.852                  -0.780966       -48.52025
1.856                 -0.7939775       -48.82522
1.86                  -0.8072855       -49.13378
1.864                 -0.8209024       -49.44598
1.868                 -0.8348397       -49.76187
1.872                 -0.8491094        -50.0815
1.876                  -0.863727       -50.40492
1.88                  -0.8787047       -50.73217
1.884                  -0.894054       -51.06329
1.888                 -0.9097895       -51.39833
1.892                 -0.9259272       -51.73734
1.896                 -0.9424804       -52.08037
1.9                   -0.9594622       -52.42743
1.904                 -0.9768899        -52.7786
1.908                  -0.994777       -53.13389
1.912                   -1.01314       -53.49336
1.916                  -1.031992       -53.85703
1.92                   -1.051349       -54.22494
1.924                  -1.071231       -54.59712
1.928                   -1.09165       -54.97363
1.932                  -1.112624       -55.35447
1.936                  -1.134171        -55.7397
1.94                   -1.156304       -56.12933
1.944                  -1.179044        -56.5234
1.948                  -1.202407       -56.92194
1.952                   -1.22641       -57.32499
1.956                  -1.251071       -57.73256
1.96                   -1.276408       -58.14467
1.964                  -1.302439       -58.56137
1.968                  -1.329182       -58.98267
1.972                  -1.356655        -59.4086
1.976                   -1.38488       -59.83918
1.98                    -1.41387       -60.27443
1.984                  -1.443649       -60.71438
1.988                  -1.474234       -61.15906
1.992                  -1.505645       -61.60848
1.996                  -1.537903       -62.06266
2                      -1.571027       -62.52165
2.004                  -1.605036       -62.98542
2.008                   -1.63995       -63.45402
2.012                  -1.675791       -63.92747
2.016                  -1.712581        -64.4058
2.02                   -1.750339       -64.88902
2.024                  -1.789084       -65.37713
2.028                  -1.828842       -65.87019
2.032                  -1.869632       -66.36822
2.036                  -1.911477        -66.8712
2.04                   -1.954399        -67.3792
2.044                  -1.998418        -67.8922
2.048                  -2.043561       -68.41025
2.052                  -2.089848       -68.93339
2.056                  -2.137304       -69.46161
2.06                   -2.185951       -69.99497
2.064                  -2.235815       -70.53347
2.068                  -2.286918       -71.07716
2.072                  -2.339287       -71.62605
2.076                  -2.392945       -72.18019
2.08                   -2.447919       -72.73961
2.084                  -2.504234       -73.30436
2.088                  -2.561917       -73.87446
2.092                  -2.620994       -74.44994
2.096                  -2.681491       -75.03087
2.1                    -2.743439       -75.61728
2.104                  -2.806863       -76.20924
2.108                  -2.871793       -76.80676
2.112                  -2.938258       -77.40993
2.116                  -3.006287        -78.0188
2.12                   -3.075912       -78.63345
2.124                  -3.147163       -79.25392
2.128                  -3.220072        -79.8803
2.132                  -3.294671       -80.51264
2.136                  -3.370993       -81.15106
2.14                   -3.449073       -81.79561
2.144                  -3.528946        -82.4464
2.148                  -3.610644       -83.10355
2.152                  -3.694208       -83.76712
2.156                  -3.779671       -84.43725
2.16                   -3.867074       -85.11406
2.164                  -3.956455       -85.79766
2.168                  -4.047855       -86.48821
2.172                  -4.141315       -87.18584
2.176                  -4.236877       -87.89073
2.18                   -4.334585       -88.60303
2.184                  -4.434483        -89.3229
2.188                   -4.53662       -90.05055
2.192                  -4.641041       -90.78617
2.196                  -4.747792       -91.53001
2.2                    -4.856929       -92.28226
2.204                    -4.9685        -93.0432
2.208                  -5.082561       -93.81307
2.212                  -5.199164       -94.59217
2.216                  -5.318369        -95.3808
2.22                   -5.440233       -96.17929
2.224                  -5.564816       -96.98799
2.228                  -5.692179       -97.80725
2.232                  -5.822389        -98.6375
2.236                   -5.95551       -99.47917
2.24                   -6.091612       -100.3327
2.244                  -6.230763       -101.1986
2.248                  -6.373037       -102.0774
2.252                  -6.518508       -102.9697
2.256                  -6.667252        -103.876
2.26                   -6.819349       -104.7972
2.264                  -6.974881       -105.7337
2.268                  -7.133929       -106.6866
2.272                   -7.29658       -107.6564
2.276                  -7.462921       -108.6443
2.28                   -7.633042        -109.651
2.284                  -7.807033       -110.6778
2.288                  -7.984985       -111.7256
2.292                  -8.166993       -112.7958
2.296                  -8.353151       -113.8897
2.3                    -8.543552       -115.0086
2.304                  -8.738291       -116.1542
2.308                  -8.937459       -117.3281
2.312                  -9.141149       -118.5322
2.316                  -9.349442       -119.7685
2.32                   -9.562422       -121.0391
2.324                  -9.780165       -122.3464
2.328                  -10.00273        -123.693
2.332                  -10.23018       -125.0816
2.336                  -10.46254       -126.5153
2.34                   -10.69983       -127.9974
2.344                  -10.94205       -129.5315
2.348                  -11.18916       -131.1214
2.352                  -11.44108       -132.7713
2.356                   -11.6977       -134.4859
2.36                   -11.95885         -136.27
2.364                  -12.22427        -138.129
2.368                  -12.49365       -140.0684
2.372                  -12.76657       -142.0944
2.376                  -13.04251       -144.2132
2.38                   -13.32078       -146.4316
2.384                  -13.60058       -148.7565
2.388                  -13.88089       -151.1949
2.392                  -14.16052       -153.7537
2.396                  -14.43801       -156.4399
2.4                    -14.71168       -159.2595
2.404                  -14.97956       -162.2181