! TOUCHSTONE file generated by CST MICROWAVE STUDIO
! Date and time: Fri May  6 09:22:50 2022
! Project name: ant1_ceramic_sweep_10porcent.cst
! Parameters = {e=0.035; h=1.6; i=0.8; l1=0.55; l2=17; ls=80; wl=1.7; ws=30}
! Header version: 2018
! Port assignment regex: !\s*Touchstone port\s*([0-9]+)\s*=\s*(CST MWS port|CST DS port)\s*([0-9]+|Zmin|Zmax)\s*\(\"(.*)\"\)(\s*mode\s*([0-9]+))?.*
! Touchstone port assignment:
! Touchstone port 1 = CST MWS port 1 ("")
# GHz S DB R 50
0                  -0.0001076863              -0
0.004              -0.0001214589      -0.0606452
0.008              -0.0001591554      -0.1212824
0.012              -0.0002244081      -0.1819038
0.016              -0.0003136066      -0.2425013
0.02               -0.0004288411      -0.3030673
0.024              -0.0005685828      -0.3635938
0.028              -0.0007323436      -0.4240733
0.032              -0.0009211936      -0.4844984
0.036               -0.001132584      -0.5448614
0.04                -0.001368112      -0.6051555
0.044               -0.001625237      -0.6653734
0.048               -0.001906084      -0.7255085
0.052               -0.002205533       -0.785554
0.056               -0.002526749      -0.8455038
0.06                -0.002867727      -0.9053517
0.064               -0.003227499      -0.9650921
0.068                -0.00360458       -1.024719
0.072               -0.003999043       -1.084229
0.076               -0.004408374       -1.143614
0.08                -0.004832649       -1.202872
0.084               -0.005270393       -1.261999
0.088               -0.005721685        -1.32099
0.092               -0.006182977       -1.379842
0.096               -0.006656424       -1.438552
0.1                  -0.00713744       -1.497117
0.104               -0.007626107       -1.555536
0.108               -0.008122504       -1.613806
0.112               -0.008622043       -1.671925
0.116               -0.009127391       -1.729895
0.12                -0.009634477       -1.787712
0.124                -0.01014285       -1.845379
0.128                -0.01065103       -1.902894
0.132                -0.01115753       -1.960259
0.136                -0.01166292       -2.017475
0.14                 -0.01216415       -2.074543
0.144                -0.01265869       -2.131466
0.148                -0.01314762       -2.188247
0.152                -0.01362943       -2.244888
0.156                -0.01410157       -2.301393
0.16                 -0.01456304       -2.357765
0.164                -0.01501335       -2.414009
0.168                -0.01545149       -2.470129
0.172                -0.01587487       -2.526132
0.176                -0.01628455       -2.582021
0.18                 -0.01667691       -2.637802
0.184                -0.01705349       -2.693483
0.188                -0.01741067       -2.749069
0.192                 -0.0177505       -2.804567
0.196                -0.01806986       -2.859985
0.2                   -0.0183687       -2.915329
0.204                -0.01864649       -2.970608
0.208                -0.01890111       -3.025829
0.212                -0.01913303       -3.081001
0.216                -0.01934166       -3.136132
0.22                 -0.01952645       -3.191232
0.224                -0.01968627       -3.246307
0.228                -0.01982106       -3.301369
0.232                -0.01993074       -3.356424
0.236                -0.02001574       -3.411485
0.24                 -0.02007338       -3.466558
0.244                 -0.0201051       -3.521655
0.248                -0.02011028       -3.576784
0.252                -0.02009039       -3.631955
0.256                -0.02004425       -3.687177
0.26                 -0.01997124       -3.742461
0.264                -0.01987225       -3.797815
0.268                -0.01974821       -3.853249
0.272                -0.01959846       -3.908772
0.276                -0.01942336       -3.964395
0.28                 -0.01922487       -4.020125
0.284                -0.01900076       -4.075972
0.288                -0.01875398       -4.131945
0.292                -0.01848439       -4.188051
0.296                -0.01819287         -4.2443
0.3                  -0.01787874         -4.3007
0.304                -0.01754446       -4.357258
0.308                -0.01719137       -4.413984
0.312                -0.01681831       -4.470884
0.316                 -0.0164272       -4.527964
0.32                 -0.01601941       -4.585231
0.324                -0.01559583       -4.642693
0.328                -0.01515732       -4.700355
0.332                 -0.0147058       -4.758223
0.336                 -0.0142406       -4.816302
0.34                 -0.01376517       -4.874598
0.344                -0.01328042       -4.933113
0.348                -0.01278514       -4.991854
0.352                -0.01228384       -5.050824
0.356                -0.01177587       -5.110025
0.36                 -0.01126314        -5.16946
0.364                -0.01074709       -5.229133
0.368                -0.01022809       -5.289045
0.372               -0.009709118       -5.349196
0.376               -0.009190568        -5.40959
0.38                -0.008674914       -5.470226
0.384               -0.008161524       -5.531104
0.388               -0.007652882       -5.592225
0.392               -0.007150974       -5.653585
0.396               -0.006656203       -5.715187
0.4                 -0.006170575       -5.777026
0.404               -0.005695034       -5.839103
0.408               -0.005231078       -5.901412
0.412               -0.004779666       -5.963953
0.416               -0.004342307       -6.026722
0.42                -0.003918451       -6.089714
0.424               -0.003513229       -6.152926
0.428               -0.003125052       -6.216353
0.432               -0.002753928        -6.27999
0.436               -0.002403451       -6.343833
0.44                -0.002072592       -6.407875
0.444               -0.001763449       -6.472111
0.448               -0.001476545       -6.536533
0.452               -0.001214495       -6.601138
0.456              -0.0009752794       -6.665917
0.46               -0.0007599562       -6.730863
0.464               -0.000571198        -6.79597
0.468              -0.0004085523       -6.861228
0.472              -0.0002720863       -6.926632
0.476               -0.000162916       -6.992173
0.48               -8.112718e-05       -7.057844
0.484              -2.632194e-05       -7.123635
0.488              -1.394688e-07       -7.189539
0.492              -2.194108e-06       -7.255548
0.496              -3.310949e-05       -7.321654
0.5                  -9.3018e-05       -7.387849
0.504               -0.000179475       -7.454122
0.508              -0.0002951928       -7.520467
0.512              -0.0004403058       -7.586877
0.516              -0.0006113796       -7.653339
0.52               -0.0008116232        -7.71985
0.524                -0.00103919       -7.786397
0.528               -0.001293143       -7.852976
0.532               -0.001573648       -7.919578
0.536               -0.001880345       -7.986196
0.54                 -0.00221341       -8.052822
0.544               -0.002568395       -8.119445
0.548               -0.002949021       -8.186063
0.552               -0.003353358        -8.25267
0.556               -0.003778491       -8.319257
0.56                -0.004225099       -8.385818
0.564               -0.004693827       -8.452348
0.568               -0.005179689       -8.518839
0.572               -0.005683262        -8.58529
0.576               -0.006204765       -8.651692
0.58                -0.006743757       -8.718045
0.584               -0.007294656       -8.784341
0.588               -0.007860197       -8.850579
0.592               -0.008437323       -8.916755
0.596               -0.009025679       -8.982865
0.6                 -0.009623198        -9.04891
0.604                -0.01022945       -9.114888
0.608                -0.01084144       -9.180793
0.612                -0.01145916       -9.246628
0.616                -0.01208007       -9.312392
0.62                 -0.01270363       -9.378087
0.624                -0.01332786        -9.44371
0.628                -0.01395162       -9.509265
0.632                -0.01457293        -9.57475
0.636                -0.01519164       -9.640172
0.64                  -0.0158051       -9.705532
0.644                 -0.0164123       -9.770831
0.648                -0.01701146       -9.836078
0.652                -0.01760006       -9.901268
0.656                -0.01817989       -9.966415
0.66                 -0.01874678       -10.03152
0.664                -0.01929998       -10.09659
0.668                -0.01983986       -10.16162
0.672                -0.02036314       -10.22664
0.676                -0.02086912       -10.29164
0.68                 -0.02135749       -10.35662
0.684                -0.02182602       -10.42161
0.688                 -0.0222749       -10.48661
0.692                -0.02270182       -10.55162
0.696                -0.02310603       -10.61665
0.7                  -0.02348664       -10.68172
0.704                -0.02384286       -10.74683
0.708                 -0.0241748       -10.81199
0.712                -0.02448266       -10.87722
0.716                -0.02476143       -10.94252
0.72                 -0.02501391       -11.00791
0.724                -0.02524062       -11.07339
0.728                -0.02543863       -11.13898
0.732                -0.02560754       -11.20469
0.736                -0.02574851       -11.27052
0.74                 -0.02586052        -11.3365
0.744                 -0.0259447       -11.40263
0.748                -0.02599854       -11.46892
0.752                -0.02602469        -11.5354
0.756                -0.02602217       -11.60206
0.76                  -0.0259905       -11.66892
0.764                -0.02593179       -11.73599
0.768                -0.02584456       -11.80329
0.772                -0.02572929       -11.87082
0.776                -0.02558816       -11.93859
0.78                 -0.02541959       -12.00663
0.784                -0.02522622       -12.07494
0.788                -0.02500861       -12.14352
0.792                -0.02476627        -12.2124
0.796                -0.02450074       -12.28157
0.8                  -0.02421258       -12.35107
0.804                -0.02390344       -12.42088
0.808                -0.02357491       -12.49102
0.812                -0.02322851       -12.56151
0.816                -0.02286129       -12.63234
0.82                 -0.02247942       -12.70353
0.824                -0.02208308       -12.77509
0.828                -0.02167281       -12.84702
0.832                -0.02125026       -12.91934
0.836                -0.02081657       -12.99204
0.84                 -0.02037344       -13.06514
0.844                 -0.0199235       -13.13864
0.848                -0.01946701       -13.21255
0.852                -0.01900609       -13.28687
0.856                -0.01854299        -13.3616
0.86                 -0.01807792       -13.43676
0.864                -0.01761325       -13.51234
0.868                -0.01715166       -13.58834
0.872                -0.01669289       -13.66477
0.876                 -0.0162423       -13.74164
0.88                 -0.01579674       -13.81894
0.884                -0.01536156       -13.89666
0.888                  -0.014937       -13.97483
0.892                -0.01452512       -14.05342
0.896                -0.01412765       -14.13245
0.9                  -0.01374557       -14.21191
0.904                -0.01338188       -14.29179
0.908                -0.01303646       -14.37211
0.912                -0.01271232       -14.45284
0.916                 -0.0124109         -14.534
0.92                 -0.01213376       -14.61557
0.924                  -0.011881       -14.69756
0.928                -0.01165561       -14.77995
0.932                -0.01145859       -14.86274
0.936                -0.01129164       -14.94593
0.94                 -0.01115484       -15.02951
0.944                -0.01104882       -15.11347
0.948                -0.01097825       -15.19781
0.952                -0.01094014       -15.28252
0.956                -0.01093829       -15.36759
0.96                 -0.01097194       -15.45301
0.964                -0.01104312       -15.53878
0.968                -0.01115215       -15.62489
0.972                -0.01129924       -15.71133
0.976                -0.01148635       -15.79809
0.98                 -0.01171278       -15.88517
0.984                -0.01197916       -15.97254
0.988                -0.01228665       -16.06021
0.992                -0.01263498       -16.14816
0.996                -0.01302332       -16.23639
1                     -0.0134538       -16.32488
1.004                -0.01392595       -16.41363
1.008                 -0.0144379       -16.50262
1.012                -0.01499138       -16.59186
1.016                -0.01558595       -16.68132
1.02                  -0.0162212         -16.771
1.024                -0.01689526       -16.86091
1.028                -0.01760979       -16.95099
1.032                -0.01836263       -17.04126
1.036                -0.01915499       -17.13174
1.04                 -0.01998358       -17.22239
1.044                -0.02084979       -17.31321
1.048                -0.02175103       -17.40419
1.052                -0.02268714       -17.49533
1.056                -0.02365679        -17.5866
1.06                 -0.02465955       -17.67805
1.064                -0.02569332        -17.7696
1.068                -0.02675697       -17.86126
1.072                -0.02784929       -17.95309
1.076                -0.02896858       -18.04505
1.08                 -0.03011463       -18.13709
1.084                -0.03128446       -18.22925
1.088                -0.03247621       -18.32153
1.092                 -0.0336902       -18.41391
1.096                -0.03492351       -18.50641
1.1                  -0.03617392       -18.59903
1.104                -0.03744058       -18.69173
1.108                -0.03872119       -18.78454
1.112                 -0.0400136       -18.87748
1.116                -0.04131915       -18.97049
1.12                 -0.04263219       -19.06362
1.124                -0.04395105       -19.15689
1.128                -0.04527672       -19.25027
1.132                -0.04660471       -19.34377
1.136                -0.04793445       -19.43739
1.14                  -0.0492637       -19.53115
1.144                -0.05059076       -19.62505
1.148                -0.05191333       -19.71909
1.152                -0.05323166       -19.81329
1.156                -0.05454092       -19.90766
1.16                 -0.05584212       -20.00219
1.164                -0.05713236       -20.09691
1.168                -0.05841031       -20.19183
1.172                -0.05967403       -20.28695
1.176                -0.06092128       -20.38228
1.18                  -0.0621531       -20.47785
1.184                 -0.0633659       -20.57366
1.188                -0.06455913       -20.66973
1.192                -0.06573255       -20.76606
1.196                -0.06688317       -20.86269
1.2                  -0.06801121       -20.95961
1.204                -0.06911471       -21.05685
1.208                -0.07019348       -21.15443
1.212                -0.07124667       -21.25236
1.216                 -0.0722725       -21.35066
1.22                 -0.07327206       -21.44934
1.224                -0.07424437       -21.54842
1.228                -0.07518873       -21.64793
1.232                -0.07610444       -21.74788
1.236                -0.07699199       -21.84829
1.24                 -0.07785093       -21.94918
1.244                -0.07868174       -22.05057
1.248                -0.07948427       -22.15248
1.252                -0.08025896       -22.25492
1.256                -0.08100563       -22.35792
1.26                 -0.08172642        -22.4615
1.264                -0.08242033       -22.56568
1.268                -0.08308864       -22.67048
1.272                -0.08373275       -22.77591
1.276                -0.08435294         -22.882
1.28                 -0.08494918       -22.98876
1.284                -0.08552519       -23.09623
1.288                -0.08608149        -23.2044
1.292                 -0.0866194       -23.31331
1.296                -0.08713991       -23.42297
1.3                  -0.08764446       -23.53341
1.304                -0.08813623       -23.64463
1.308                -0.08861584       -23.75665
1.312                -0.08908632        -23.8695
1.316                -0.08954894        -23.9832
1.32                 -0.09000582       -24.09774
1.324                -0.09046031       -24.21316
1.328                -0.09091378       -24.32947
1.332                -0.09136821       -24.44668
1.336                -0.09182785       -24.56481
1.34                  -0.0922939       -24.68386
1.344                -0.09276837       -24.80386
1.348                -0.09325615       -24.92481
1.352                -0.09375777       -25.04673
1.356                 -0.0942775       -25.16963
1.36                 -0.09481722       -25.29351
1.364                -0.09537998        -25.4184
1.368                -0.09597022       -25.54429
1.372                -0.09658905       -25.67119
1.376                -0.09724006       -25.79912
1.38                 -0.09792654       -25.92808
1.384                -0.09865064       -26.05807
1.388                -0.09941705       -26.18909
1.392                 -0.1002267       -26.32117
1.396                 -0.1010838       -26.45429
1.4                   -0.1019914       -26.58846
1.404                 -0.1029529       -26.72369
1.408                 -0.1039693       -26.85997
1.412                 -0.1050442       -26.99731
1.416                 -0.1061824       -27.13571
1.42                  -0.1073859       -27.27517
1.424                  -0.108656       -27.41567
1.428                 -0.1099963       -27.55723
1.432                  -0.111409       -27.69985
1.436                 -0.1128987       -27.84351
1.44                  -0.1144673       -27.98822
1.444                 -0.1161148       -28.13397
1.448                  -0.117846       -28.28076
1.452                 -0.1196617       -28.42857
1.456                 -0.1215666       -28.57742
1.46                  -0.1235602       -28.72729
1.464                 -0.1256454       -28.87817
1.468                 -0.1278243       -29.03006
1.472                 -0.1300994       -29.18296
1.476                 -0.1324718       -29.33685
1.48                  -0.1349432       -29.49172
1.484                 -0.1375148       -29.64758
1.488                  -0.140188       -29.80441
1.492                  -0.142965       -29.96221
1.496                 -0.1458455       -30.12096
1.5                   -0.1488316       -30.28067
1.504                 -0.1519243       -30.44132
1.508                 -0.1551244        -30.6029
1.512                 -0.1584323       -30.76542
1.516                 -0.1618483       -30.92885
1.52                  -0.1653727       -31.09319
1.524                 -0.1690085       -31.25845
1.528                 -0.1727505       -31.42459
1.532                 -0.1766048       -31.59164
1.536                 -0.1805664       -31.75958
1.54                  -0.1846387        -31.9284
1.544                 -0.1888198        -32.0981
1.548                 -0.1931105       -32.26868
1.552                  -0.197509       -32.44012
1.556                 -0.2020144       -32.61244
1.56                  -0.2066274       -32.78562
1.564                 -0.2113464       -32.95967
1.568                 -0.2161711       -33.13458
1.572                 -0.2211003       -33.31036
1.576                 -0.2261328       -33.48701
1.58                  -0.2312684       -33.66453
1.584                 -0.2365038       -33.84291
1.588                   -0.24184       -34.02218
1.592                  -0.247275       -34.20233
1.596                 -0.2528066       -34.38336
1.6                   -0.2584351        -34.5653
1.604                 -0.2641572       -34.74813
1.608                 -0.2699726       -34.93187
1.612                 -0.2758778       -35.11655
1.616                 -0.2818743       -35.30217
1.62                  -0.2879585       -35.48873
1.624                 -0.2941304       -35.67626
1.628                 -0.3003869       -35.86477
1.632                  -0.306728       -36.05428
1.636                   -0.31315       -36.24481
1.64                  -0.3196544       -36.43638
1.644                  -0.326237       -36.62901
1.648                 -0.3328991       -36.82273
1.652                 -0.3396371       -37.01755
1.656                 -0.3464507       -37.21351
1.66                  -0.3533407       -37.41063
1.664                 -0.3603021       -37.60894
1.668                 -0.3673362       -37.80847
1.672                 -0.3744443       -38.00926
1.676                 -0.3816216       -38.21132
1.68                  -0.3888701       -38.41472
1.684                 -0.3961906       -38.61947
1.688                 -0.4035788       -38.82561
1.692                 -0.4110386       -39.03318
1.696                 -0.4185683       -39.24222
1.7                   -0.4261689       -39.45278
1.704                 -0.4338393       -39.66489
1.708                 -0.4415819       -39.87859
1.712                 -0.4493979       -40.09395
1.716                 -0.4572874       -40.31099
1.72                  -0.4652514       -40.52977
1.724                 -0.4732919       -40.75032
1.728                 -0.4814119       -40.97271
1.732                 -0.4896121       -41.19699
1.736                 -0.4978951        -41.4232
1.74                  -0.5062659        -41.6514
1.744                 -0.5147239       -41.88163
1.748                 -0.5232735       -42.11395
1.752                 -0.5319184       -42.34841
1.756                 -0.5406644       -42.58508
1.76                  -0.5495116       -42.82401
1.764                  -0.558467       -43.06524
1.768                 -0.5675358       -43.30885
1.772                 -0.5767214       -43.55487
1.776                 -0.5860299       -43.80338
1.78                  -0.5954678       -44.05442
1.784                 -0.6050387       -44.30806
1.788                 -0.6147511       -44.56435
1.792                 -0.6246107       -44.82336
1.796                  -0.634625       -45.08513
1.8                   -0.6448017       -45.34973
1.804                 -0.6551457        -45.6172
1.808                 -0.6656684       -45.88762
1.812                 -0.6763776       -46.16105
1.816                 -0.6872797       -46.43752
1.82                   -0.698386       -46.71711
1.824                 -0.7097036       -46.99986
1.828                 -0.7212444       -47.28584
1.832                 -0.7330159       -47.57509
1.836                 -0.7450306       -47.86768
1.84                   -0.757298       -48.16366
1.844                 -0.7698286       -48.46307
1.848                 -0.7826355       -48.76598
1.852                 -0.7957266       -49.07243
1.856                 -0.8091176       -49.38248
1.86                  -0.8228181       -49.69617
1.864                 -0.8368406       -50.01357
1.868                 -0.8511998        -50.3347
1.872                 -0.8659064       -50.65963
1.876                 -0.8809736       -50.98838
1.88                  -0.8964171       -51.32103
1.884                 -0.9122481        -51.6576
1.888                 -0.9284833       -51.99816
1.892                 -0.9451343       -52.34271
1.896                 -0.9622177       -52.69133
1.9                   -0.9797475       -53.04405
1.904                 -0.9977385        -53.4009
1.908                  -1.016207       -53.76193
1.912                  -1.035166       -54.12715
1.916                  -1.054635       -54.49664
1.92                   -1.074627       -54.87041
1.924                   -1.09516       -55.24851
1.928                   -1.11625       -55.63096
1.932                  -1.137913       -56.01778
1.936                  -1.160166       -56.40902
1.94                   -1.183028       -56.80472
1.944                  -1.206513       -57.20489
1.948                  -1.230641       -57.60956
1.952                  -1.255429       -58.01877
1.956                  -1.280893       -58.43253
1.96                   -1.307054       -58.85088
1.964                   -1.33393       -59.27386
1.968                  -1.361537       -59.70146
1.972                  -1.389896       -60.13373
1.976                  -1.419026       -60.57067
1.98                   -1.448946       -61.01234
1.984                  -1.479673       -61.45873
1.988                  -1.511229       -61.90988
1.992                  -1.543632       -62.36578
1.996                  -1.576903       -62.82651
2                      -1.611061       -63.29204
2.004                  -1.646129       -63.76242
2.008                  -1.682125       -64.23766
2.012                  -1.719069       -64.71777
2.016                  -1.756987        -65.2028
2.02                   -1.795893       -65.69274
2.024                  -1.835813       -66.18763
2.028                  -1.876768       -66.68749
2.032                   -1.91878       -67.19235
2.036                   -1.96187       -67.70221
2.04                   -2.006062       -68.21712
2.044                  -2.051379       -68.73709
2.048                  -2.097842       -69.26214
2.052                  -2.145475       -69.79232
2.056                  -2.194303       -70.32763
2.06                    -2.24435       -70.86811
2.064                  -2.295639       -71.41379
2.068                  -2.348195       -71.96471
2.072                  -2.402044       -72.52088
2.076                  -2.457211       -73.08238
2.08                    -2.51372       -73.64919
2.084                  -2.571599       -74.22139
2.088                  -2.630876       -74.79899
2.092                  -2.691577       -75.38209
2.096                  -2.753728       -75.97067
2.1                    -2.817361       -76.56483
2.104                    -2.8825       -77.16459
2.108                  -2.949177       -77.77003
2.112                  -3.017422        -78.3812
2.116                  -3.087265       -78.99815
2.12                   -3.158737       -79.62097
2.124                  -3.231869       -80.24973
2.128                  -3.306695        -80.8845
2.132                  -3.383247       -81.52538
2.136                  -3.461558       -82.17243
2.14                   -3.541664       -82.82575
2.144                    -3.6236       -83.48547
2.148                  -3.707402       -84.15166
2.152                  -3.793109       -84.82446
2.156                  -3.880758       -85.50397
2.16                   -3.970387       -86.19033
2.164                  -4.062039       -86.88368
2.168                  -4.155752       -87.58418
2.172                  -4.251572       -88.29198
2.176                  -4.349539       -89.00724
2.18                     -4.4497       -89.73014
2.184                  -4.552101       -90.46088
2.188                  -4.656787       -91.19967
2.192                   -4.76381       -91.94673
2.196                  -4.873218       -92.70229
2.2                    -4.985064       -93.46659
2.204                  -5.099402       -94.23993
2.208                  -5.216286       -95.02257
2.212                  -5.335772       -95.81483
2.216                  -5.457919       -96.61704
2.22                   -5.582785       -97.42954
2.224                  -5.710435       -98.25275
2.228                  -5.840932       -99.08704
2.232                  -5.974341       -99.93284
2.236                  -6.110732       -100.7906
2.24                   -6.250172       -101.6609
2.244                  -6.392735       -102.5443
2.248                  -6.538494       -103.4412
2.252                  -6.687525       -104.3524
2.256                  -6.839908       -105.2785
2.26                   -6.995721       -106.2202
2.264                  -7.155049       -107.1783
2.268                  -7.317975       -108.1537
2.272                  -7.484586       -109.1473
2.276                   -7.65497         -110.16
2.28                   -7.829215       -111.1928
2.284                  -8.007414       -112.2471
2.288                  -8.189658       -113.3239
2.292                  -8.376037       -114.4246
2.296                  -8.566646       -115.5507
2.3                    -8.761575       -116.7038
2.304                  -8.960912       -117.8855
2.308                  -9.164744       -119.0977
2.312                  -9.373155       -120.3425
2.316                  -9.586221       -121.6219
2.32                    -9.80401       -122.9385
2.324                  -10.02658       -124.2947
2.328                  -10.25398       -125.6934
2.332                  -10.48624       -127.1377
2.336                  -10.72337       -128.6308
2.34                   -10.96535       -130.1764
2.344                  -11.21214       -131.7783
2.348                  -11.46365       -133.4408
2.352                  -11.71974       -135.1685
2.356                  -11.98023       -136.9662
2.36                   -12.24485       -138.8393
2.364                  -12.51327       -140.7934
2.368                  -12.78505       -142.8344
2.372                  -13.05963       -144.9688
2.376                  -13.33633        -147.203
2.38                   -13.61428       -149.5439
2.384                  -13.89247       -151.9984
2.388                  -14.16965       -154.5732
2.392                  -14.44436       -157.2748
2.396                  -14.71487       -160.1092
2.4                    -14.97922       -163.0815
2.404                  -15.23514       -166.1955