! TOUCHSTONE file generated by CST MICROWAVE STUDIO
! Date and time: Fri May  6 09:22:51 2022
! Project name: ant1_ceramic_sweep_10porcent.cst
! Parameters = {e=0.035; h=1.6; i=0.8; l1=0.5; l2=16.83; ls=80; wl=1.7; ws=30}
! Header version: 2018
! Port assignment regex: !\s*Touchstone port\s*([0-9]+)\s*=\s*(CST MWS port|CST DS port)\s*([0-9]+|Zmin|Zmax)\s*\(\"(.*)\"\)(\s*mode\s*([0-9]+))?.*
! Touchstone port assignment:
! Touchstone port 1 = CST MWS port 1 ("")
# GHz S DB R 50
0                  -9.318999e-05              -0
0.004              -0.0001060745     -0.05971983
0.008              -0.0001421418      -0.1194322
0.012              -0.0002034705      -0.1791296
0.016              -0.0002874847      -0.2388046
0.02               -0.0003973084        -0.29845
0.024              -0.0005298578      -0.3580584
0.028              -0.0006872314      -0.4176225
0.032              -0.0008658369      -0.4771355
0.036               -0.001067782      -0.5365902
0.04                -0.001291037      -0.5959801
0.044               -0.001536164      -0.6552983
0.048                -0.00180373      -0.7145388
0.052               -0.002089129      -0.7736951
0.056               -0.002395523      -0.8327613
0.06                -0.002718829      -0.8917317
0.064               -0.003061181      -0.9506007
0.068               -0.003421608       -1.009364
0.072               -0.003797589       -1.068015
0.076               -0.004186603        -1.12655
0.08                -0.004591311       -1.184965
0.084               -0.005009715       -1.243256
0.088               -0.005440333       -1.301419
0.092               -0.005881687       -1.359451
0.096               -0.006332297        -1.41735
0.1                 -0.006792755       -1.475111
0.104               -0.007260546       -1.532734
0.108               -0.007734707       -1.590217
0.112               -0.008213755       -1.647558
0.116               -0.008697762       -1.704756
0.12                -0.009183687       -1.761811
0.124               -0.009672119       -1.818722
0.128                -0.01015949        -1.87549
0.132                -0.01064794       -1.932116
0.136                -0.01113286         -1.9886
0.14                 -0.01161482       -2.044944
0.144                -0.01209233        -2.10115
0.148                -0.01256335        -2.15722
0.152                -0.01302896       -2.213157
0.156                -0.01348506       -2.268964
0.16                 -0.01393221       -2.324645
0.164                -0.01436886       -2.380203
0.168                 -0.0147935       -2.435641
0.172                -0.01520562       -2.490967
0.176                -0.01560524       -2.546183
0.18                 -0.01598873       -2.601297
0.184                -0.01635765       -2.656312
0.188                -0.01670888       -2.711235
0.192                -0.01704242       -2.766073
0.196                -0.01735772       -2.820832
0.2                  -0.01765478       -2.875519
0.204                -0.01793095       -2.930141
0.208                 -0.0181857       -2.984705
0.212                -0.01841949        -3.03922
0.216                -0.01863228       -3.093693
0.22                 -0.01882194       -3.148131
0.224                -0.01898789       -3.202545
0.228                -0.01913007        -3.25694
0.232                -0.01924892       -3.311328
0.236                -0.01934331       -3.365716
0.24                 -0.01941318       -3.420112
0.244                -0.01945844       -3.474526
0.248                -0.01947898       -3.528966
0.252                 -0.0194747       -3.583443
0.256                -0.01944498       -3.637964
0.26                 -0.01939075       -3.692539
0.264                -0.01931188       -3.747177
0.268                -0.01920827       -3.801886
0.272                 -0.0190803       -3.856676
0.276                -0.01892784       -3.911556
0.28                 -0.01875233       -3.966532
0.284                -0.01855414       -4.021617
0.288                -0.01833209       -4.076816
0.292                -0.01808864       -4.132138
0.296                -0.01782312       -4.187592
0.3                  -0.01753642       -4.243185
0.304                -0.01723099       -4.298926
0.308                -0.01690512       -4.354821
0.312                 -0.0165597       -4.410877
0.316                -0.01619768       -4.467102
0.32                 -0.01581944       -4.523502
0.324                -0.01542429       -4.580083
0.328                -0.01501518       -4.636852
0.332                -0.01459147       -4.693814
0.336                -0.01415506       -4.750975
0.34                 -0.01370633       -4.808338
0.344                -0.01324822        -4.86591
0.348                -0.01278061       -4.923695
0.352                 -0.0123054       -4.981695
0.356                -0.01182246       -5.039916
0.36                 -0.01133375       -5.098358
0.364                -0.01084167       -5.157026
0.368                -0.01034563       -5.215921
0.372               -0.009847035       -5.275045
0.376               -0.009349357       -5.334401
0.38                -0.008852521       -5.393989
0.384               -0.008356408       -5.453807
0.388               -0.007864524       -5.513859
0.392               -0.007376781       -5.574142
0.396               -0.006895159       -5.634657
0.4                 -0.006421627       -5.695402
0.404               -0.005955593       -5.756376
0.408               -0.005499052       -5.817577
0.412               -0.005054539       -5.879002
0.416               -0.004621488       -5.940648
0.42                -0.004201881       -6.002514
0.424               -0.003796224       -6.064594
0.428               -0.003406029       -6.126886
0.432               -0.003032288       -6.189385
0.436               -0.002676565       -6.252087
0.44                -0.002338863       -6.314984
0.444               -0.002022234       -6.378076
0.448               -0.001723611       -6.441354
0.452               -0.001447169       -6.504813
0.456               -0.001193939       -6.568447
0.46               -0.0009629332       -6.632251
0.464              -0.0007547149       -6.696216
0.468              -0.0005698579       -6.760335
0.472              -0.0004104682       -6.824605
0.476              -0.0002771599       -6.889015
0.48               -0.0001694703        -6.95356
0.484              -8.698916e-05       -7.018231
0.488              -3.182575e-05       -7.083022
0.492              -2.593051e-06       -7.147923
0.496              -8.969517e-07       -7.212929
0.5                -2.581998e-05       -7.278031
0.504              -7.807414e-05       -7.343218
0.508               -0.000156606       -7.408489
0.512              -0.0002631993       -7.473831
0.516               -0.000395884       -7.539237
0.52               -0.0005558432         -7.6047
0.524              -0.0007427091       -7.670211
0.528              -0.0009550242       -7.735765
0.532               -0.001194023       -7.801351
0.536               -0.001458241       -7.866967
0.54                -0.001746343       -7.932599
0.544               -0.002058944       -7.998245
0.548               -0.002395728       -8.063895
0.552                 -0.0027547       -8.129546
0.556               -0.003136617       -8.195187
0.56                -0.003539987       -8.260816
0.564               -0.003962922       -8.326425
0.568               -0.004408169       -8.392009
0.572               -0.004869578       -8.457563
0.576               -0.005349448       -8.523081
0.58                -0.005845262       -8.588558
0.584               -0.006357673       -8.653992
0.588               -0.006883618       -8.719379
0.592               -0.007423282       -8.784714
0.596               -0.007975713       -8.849995
0.6                 -0.008538425       -8.915217
0.604               -0.009109363        -8.98038
0.608                -0.00969022       -9.045481
0.612                -0.01027839       -9.110522
0.616                -0.01087088       -9.175496
0.62                 -0.01146818       -9.240408
0.624                -0.01206776       -9.305256
0.628                -0.01267015       -9.370039
0.632                -0.01327223       -9.434759
0.636                 -0.0138719       -9.499417
0.64                 -0.01447019       -9.564016
0.644                -0.01506389       -9.628558
0.648                -0.01565243       -9.693046
0.652                -0.01623427        -9.75748
0.656                -0.01680869       -9.821869
0.66                 -0.01737358       -9.886213
0.664                -0.01792774       -9.950519
0.668                -0.01846898       -10.01479
0.672                -0.01899819       -10.07903
0.676                 -0.0195136       -10.14325
0.68                 -0.02001302       -10.20746
0.684                -0.02049563       -10.27165
0.688                -0.02096031       -10.33584
0.692                -0.02140673       -10.40004
0.696                -0.02183309       -10.46425
0.7                  -0.02223816       -10.52849
0.704                -0.02262212       -10.59275
0.708                -0.02298413       -10.65705
0.712                -0.02332292        -10.7214
0.716                -0.02363759       -10.78581
0.72                 -0.02392791       -10.85028
0.724                -0.02419133       -10.91483
0.728                 -0.0244312       -10.97947
0.732                -0.02464347       -11.04421
0.736                -0.02483038       -11.10906
0.74                 -0.02498897       -11.17402
0.744                -0.02512141       -11.23912
0.748                -0.02522619       -11.30436
0.752                -0.02530451       -11.36975
0.756                -0.02535492        -11.4353
0.76                 -0.02537748       -11.50103
0.764                -0.02537277       -11.56694
0.768                -0.02534138       -11.63305
0.772                -0.02528337       -11.69937
0.776                -0.02519834       -11.76591
0.78                 -0.02508785       -11.83268
0.784                 -0.0249519       -11.89969
0.788                 -0.0247907       -11.96695
0.792                -0.02460522       -12.03447
0.796                -0.02439757       -12.10227
0.8                  -0.02416477       -12.17035
0.804                -0.02391204       -12.23873
0.808                -0.02363738        -12.3074
0.812                -0.02334334       -12.37639
0.816                -0.02303012        -12.4457
0.82                 -0.02269827       -12.51534
0.824                -0.02234987       -12.58532
0.828                -0.02198663       -12.65565
0.832                -0.02160915       -12.72633
0.836                -0.02121754       -12.79737
0.84                 -0.02081551       -12.86878
0.844                -0.02040323       -12.94057
0.848                 -0.0199823       -13.01274
0.852                -0.01955347        -13.0853
0.856                -0.01911944       -13.15825
0.86                 -0.01868087        -13.2316
0.864                -0.01823961       -13.30535
0.868                -0.01779776        -13.3795
0.872                 -0.0173562       -13.45407
0.876                -0.01691667       -13.52904
0.88                 -0.01648044       -13.60443
0.884                -0.01605035       -13.68024
0.888                -0.01562612       -13.75647
0.892                -0.01521177       -13.83311
0.896                -0.01480707       -13.91017
0.9                  -0.01441441       -13.98765
0.904                -0.01403569       -14.06555
0.908                -0.01367127       -14.14387
0.912                -0.01332421        -14.2226
0.916                -0.01299532       -14.30175
0.92                 -0.01268512        -14.3813
0.924                -0.01239712       -14.46126
0.928                -0.01213236       -14.54163
0.932                 -0.0118898       -14.62239
0.936                -0.01167391       -14.70356
0.94                 -0.01148333       -14.78511
0.944                -0.01132234       -14.86705
0.948                -0.01119018       -14.94936
0.952                -0.01108809       -15.03206
0.956                 -0.0110172       -15.11512
0.96                 -0.01097927       -15.19854
0.964                -0.01097482       -15.28231
0.968                -0.01100446       -15.36644
0.972                -0.01107001        -15.4509
0.976                -0.01117109        -15.5357
0.98                 -0.01130953       -15.62081
0.984                -0.01148383       -15.70625
0.988                -0.01169791       -15.79199
0.992                -0.01194878       -15.87803
0.996                -0.01223894       -15.96436
1                    -0.01256793       -16.05098
1.004                -0.01293628       -16.13786
1.008                -0.01334437       -16.22501
1.012                -0.01379126       -16.31242
1.016                -0.01427857       -16.40007
1.02                 -0.01480509       -16.48796
1.024                -0.01537024       -16.57609
1.028                -0.01597458       -16.66442
1.032                -0.01661745         -16.753
1.036                -0.01729891       -16.84173
1.04                 -0.01801734       -16.93069
1.044                 -0.0187734       -17.01984
1.048                 -0.0195655       -17.10918
1.052                -0.02039324       -17.19865
1.056                -0.02125505       -17.28829
1.06                  -0.0221519       -17.37815
1.064                 -0.0230818       -17.46812
1.068                -0.02404204       -17.55822
1.072                -0.02503432       -17.64849
1.076                -0.02605578       -17.73889
1.08                 -0.02710595       -17.82941
1.084                -0.02818314       -17.92009
1.088                -0.02928509       -18.01084
1.092                -0.03041214       -18.10174
1.096                -0.03156131       -18.19275
1.1                  -0.03273238       -18.28389
1.104                -0.03392346       -18.37511
1.108                -0.03513212       -18.46647
1.112                -0.03635764       -18.55791
1.116                -0.03759844       -18.64952
1.12                 -0.03885164       -18.74118
1.124                -0.04011704       -18.83298
1.128                -0.04139206       -18.92487
1.132                -0.04267635       -19.01689
1.136                -0.04396548       -19.10903
1.14                 -0.04526019        -19.2013
1.144                -0.04655768       -19.29369
1.148                 -0.0478559       -19.38622
1.152                 -0.0491543       -19.47888
1.156                -0.05044983       -19.57169
1.16                 -0.05174194       -19.66465
1.164                -0.05302756       -19.75777
1.168                -0.05430693       -19.85106
1.172                -0.05557696       -19.94453
1.176                 -0.0568372       -20.03819
1.18                  -0.0580861       -20.13204
1.184                -0.05932115        -20.2261
1.188                -0.06054097       -20.32038
1.192                -0.06174486       -20.41489
1.196                -0.06293175       -20.50965
1.2                  -0.06410003       -20.60466
1.204                -0.06524858       -20.69995
1.208                -0.06637607       -20.79552
1.212                -0.06748234       -20.89139
1.216                -0.06856534       -20.98758
1.22                 -0.06962554        -21.0841
1.224                -0.07066018       -21.18097
1.228                -0.07167108        -21.2782
1.232                -0.07265602       -21.37582
1.236                -0.07361578       -21.47383
1.24                 -0.07454747       -21.57226
1.244                -0.07545346       -21.67112
1.248                -0.07633322       -21.77044
1.252                -0.07718602       -21.87023
1.256                -0.07801136       -21.97051
1.26                 -0.07881022       -22.07129
1.264                -0.07958399        -22.1726
1.268                -0.08033118       -22.27445
1.272                -0.08105305       -22.37687
1.276                -0.08174969       -22.47988
1.28                 -0.08242264       -22.58348
1.284                -0.08307193       -22.68771
1.288                -0.08369933       -22.79257
1.292                -0.08430619       -22.89809
1.296                -0.08489268        -23.0043
1.3                  -0.08545848       -23.11119
1.304                -0.08600921        -23.2188
1.308                -0.08654344       -23.32714
1.312                -0.08706269       -23.43622
1.316                -0.08757012       -23.54608
1.32                 -0.08806607       -23.65672
1.324                -0.08855326       -23.76815
1.328                -0.08903313        -23.8804
1.332                -0.08950825       -23.99348
1.336                -0.08998057       -24.10741
1.34                 -0.09045113        -24.2222
1.344                 -0.0909253       -24.33786
1.348                -0.09140237       -24.45441
1.352                -0.09188613       -24.57187
1.356                -0.09237875       -24.69024
1.36                 -0.09288292       -24.80953
1.364                -0.09340123       -24.92976
1.368                -0.09393657       -25.05094
1.372                -0.09449076       -25.17308
1.376                -0.09506806       -25.29619
1.38                 -0.09567038       -25.42027
1.384                -0.09629934       -25.54534
1.388                -0.09695974        -25.6714
1.392                 -0.0976533       -25.79846
1.396                 -0.0983842       -25.92653
1.4                  -0.09915364        -26.0556
1.404                -0.09996591       -26.18569
1.408                 -0.1008225        -26.3168
1.412                 -0.1017272       -26.44893
1.416                 -0.1026822       -26.58208
1.42                   -0.103691       -26.71627
1.424                 -0.1047562       -26.85148
1.428                 -0.1058806       -26.98772
1.432                 -0.1070665         -27.125
1.436                 -0.1083175        -27.2633
1.44                  -0.1096347       -27.40262
1.444                 -0.1110224       -27.54298
1.448                  -0.112482       -27.68436
1.452                 -0.1140166       -27.82676
1.456                 -0.1156285       -27.97017
1.46                  -0.1173199       -28.11461
1.464                 -0.1190926       -28.26005
1.468                 -0.1209489       -28.40649
1.472                 -0.1228918       -28.55394
1.476                 -0.1249227       -28.70239
1.48                  -0.1270431       -28.85182
1.484                 -0.1292542       -29.00223
1.488                 -0.1315604       -29.15362
1.492                 -0.1339619       -29.30598
1.496                 -0.1364599       -29.45931
1.5                    -0.139055       -29.61359
1.504                   -0.14175       -29.76883
1.508                 -0.1445459         -29.925
1.512                 -0.1474431       -30.08211
1.516                 -0.1504432       -30.24015
1.52                  -0.1535459       -30.39911
1.524                 -0.1567533       -30.55899
1.528                 -0.1600656       -30.71977
1.532                 -0.1634838       -30.88146
1.536                 -0.1670088       -31.04404
1.54                  -0.1706387       -31.20751
1.544                 -0.1743744       -31.37186
1.548                 -0.1782177        -31.5371
1.552                 -0.1821673        -31.7032
1.556                  -0.186223       -31.87017
1.56                  -0.1903833       -32.03801
1.564                 -0.1946522       -32.20671
1.568                 -0.1990242       -32.37627
1.572                 -0.2035017       -32.54668
1.576                 -0.2080827       -32.71795
1.58                  -0.2127681       -32.89007
1.584                 -0.2175551       -33.06305
1.588                 -0.2224449       -33.23688
1.592                 -0.2274348       -33.41157
1.596                 -0.2325237       -33.58711
1.6                   -0.2377115       -33.76352
1.604                 -0.2429982        -33.9408
1.608                 -0.2483793       -34.11894
1.612                 -0.2538561       -34.29797
1.616                 -0.2594268       -34.47789
1.62                  -0.2650883       -34.65869
1.624                  -0.270842       -34.84039
1.628                 -0.2766847       -35.02303
1.632                 -0.2826168       -35.20658
1.636                  -0.288632       -35.39107
1.64                  -0.2947355       -35.57652
1.644                 -0.3009227       -35.76295
1.648                 -0.3071911       -35.95036
1.652                 -0.3135419       -36.13878
1.656                 -0.3199715       -36.32823
1.66                  -0.3264798       -36.51872
1.664                 -0.3330659       -36.71028
1.668                 -0.3397272       -36.90294
1.672                 -0.3464644       -37.09672
1.676                 -0.3532751       -37.29164
1.68                   -0.360159       -37.48773
1.684                  -0.367115       -37.68503
1.688                 -0.3741429       -37.88355
1.692                 -0.3812416       -38.08335
1.696                 -0.3884113       -38.28444
1.7                   -0.3956501       -38.48686
1.704                 -0.4029599       -38.69066
1.708                 -0.4103397       -38.89586
1.712                  -0.417789       -39.10249
1.716                 -0.4253105       -39.31061
1.72                  -0.4329013       -39.52025
1.724                 -0.4405653       -39.73146
1.728                 -0.4482998       -39.94427
1.732                 -0.4561107       -40.15874
1.736                  -0.463995        -40.3749
1.74                  -0.4719565       -40.59279
1.744                 -0.4799977       -40.81249
1.748                 -0.4881176       -41.03401
1.752                 -0.4963219       -41.25742
1.756                 -0.5046107       -41.48277
1.76                  -0.5129877        -41.7101
1.764                 -0.5214566       -41.93947
1.768                 -0.5300199       -42.17092
1.772                 -0.5386814       -42.40451
1.776                 -0.5474451        -42.6403
1.78                  -0.5563152       -42.87833
1.784                 -0.5652957       -43.11867
1.788                 -0.5743928       -43.36136
1.792                 -0.5836104       -43.60645
1.796                 -0.5929541       -43.85402
1.8                     -0.60243        -44.1041
1.804                 -0.6120445       -44.35676
1.808                 -0.6218019       -44.61204
1.812                 -0.6317098       -44.87001
1.816                  -0.641776       -45.13072
1.82                  -0.6520082       -45.39422
1.824                 -0.6624126       -45.66059
1.828                 -0.6729975       -45.92985
1.832                 -0.6837726       -46.20208
1.836                 -0.6947427       -46.47731
1.84                  -0.7059208       -46.75563
1.844                 -0.7173131       -47.03706
1.848                 -0.7289305       -47.32168
1.852                 -0.7407829       -47.60951
1.856                 -0.7528798       -47.90064
1.86                  -0.7652317       -48.19509
1.864                 -0.7778484       -48.49293
1.868                 -0.7907412        -48.7942
1.872                 -0.8039235       -49.09896
1.876                 -0.8174043       -49.40725
1.88                  -0.8311959       -49.71911
1.884                  -0.845312       -50.03461
1.888                 -0.8597618       -50.35378
1.892                 -0.8745624       -50.67668
1.896                 -0.8897215       -51.00333
1.9                    -0.905256       -51.33378
1.904                 -0.9211784       -51.66809
1.908                 -0.9375017        -52.0063
1.912                 -0.9542404       -52.34843
1.916                  -0.971409       -52.69454
1.92                  -0.9890212       -53.04466
1.924                  -1.007092       -53.39882
1.928                  -1.025636       -53.75708
1.932                  -1.044668       -54.11945
1.936                  -1.064205       -54.48598
1.94                    -1.08426        -54.8567
1.944                  -1.104851       -55.23165
1.948                  -1.125993       -55.61085
1.952                  -1.147702       -55.99433
1.956                  -1.169995       -56.38214
1.96                   -1.192887       -56.77429
1.964                  -1.216396       -57.17081
1.968                   -1.24054       -57.57173
1.972                  -1.265335       -57.97708
1.976                  -1.290797        -58.3869
1.98                   -1.316947       -58.80119
1.984                  -1.343801       -59.21998
1.988                  -1.371374        -59.6433
1.992                  -1.399689       -60.07117
1.996                  -1.428761       -60.50363
2                      -1.458611       -60.94067
2.004                  -1.489256       -61.38234
2.008                  -1.520713       -61.82864
2.012                  -1.553006       -62.27962
2.016                  -1.586151       -62.73527
2.02                   -1.620168       -63.19562
2.024                  -1.655077        -63.6607
2.028                  -1.690897       -64.13051
2.032                   -1.72765        -64.6051
2.036                  -1.765354       -65.08447
2.04                   -1.804032       -65.56865
2.044                  -1.843704       -66.05767
2.048                   -1.88439       -66.55152
2.052                  -1.926113       -67.05026
2.056                  -1.968892       -67.55387
2.06                   -2.012752       -68.06241
2.064                  -2.057713        -68.5759
2.068                  -2.103798       -69.09434
2.072                  -2.151029       -69.61776
2.076                   -2.19943       -70.14622
2.08                   -2.249024       -70.67971
2.084                  -2.299834       -71.21827
2.088                  -2.351884       -71.76194
2.092                    -2.4052       -72.31073
2.096                  -2.459804       -72.86471
2.1                    -2.515722        -73.4239
2.104                  -2.572982       -73.98832
2.108                  -2.631608       -74.55803
2.112                  -2.691626       -75.13306
2.116                  -2.753063       -75.71345
2.12                   -2.815946       -76.29927
2.124                  -2.880304       -76.89056
2.128                  -2.946164       -77.48738
2.132                  -3.013556       -78.08977
2.136                  -3.082508        -78.6978
2.14                   -3.153052       -79.31154
2.144                  -3.225219       -79.93106
2.148                  -3.299038       -80.55641
2.152                  -3.374542       -81.18771
2.156                  -3.451764       -81.82502
2.16                    -3.53074       -82.46842
2.164                    -3.6115       -83.11802
2.168                  -3.694082       -83.77392
2.172                   -3.77852       -84.43623
2.176                  -3.864854       -85.10504
2.18                   -3.953119       -85.78052
2.184                  -4.043356       -86.46277
2.188                  -4.135603       -87.15193
2.192                  -4.229903       -87.84815
2.196                  -4.326295       -88.55161
2.2                    -4.424827       -89.26247
2.204                   -4.52554       -89.98088
2.208                  -4.628481       -90.70708
2.212                  -4.733697       -91.44126
2.216                  -4.841235       -92.18363
2.22                   -4.951146       -92.93445
2.224                  -5.063484       -93.69395
2.228                  -5.178299       -94.46241
2.232                  -5.295645       -95.24011
2.236                  -5.415579       -96.02739
2.24                   -5.538161       -96.82455
2.244                  -5.663449       -97.63196
2.248                  -5.791505          -98.45
2.252                  -5.922392       -99.27906
2.256                  -6.056176       -100.1196
2.26                   -6.192926       -100.9721
2.264                  -6.332709        -101.837
2.268                  -6.475598       -102.7149
2.272                  -6.621668       -103.6063
2.276                  -6.770991        -104.512
2.28                   -6.923649       -105.4325
2.284                  -7.079719       -106.3686
2.288                  -7.239285       -107.3211
2.292                   -7.40243       -108.2907
2.296                  -7.569241       -109.2785
2.3                    -7.739805       -110.2853
2.304                  -7.914209       -111.3123
2.308                  -8.092546       -112.3607
2.312                  -8.274907       -113.4315
2.316                  -8.461381       -114.5262
2.32                   -8.652062       -115.6462
2.324                  -8.847038       -116.7931
2.328                  -9.046401       -117.9686
2.332                  -9.250233       -119.1745
2.336                  -9.458619       -120.4129
2.34                   -9.671632        -121.686
2.344                  -9.889343       -122.9961
2.348                  -10.11181       -124.3457
2.352                  -10.33908       -125.7378
2.356                  -10.57117       -127.1752
2.36                   -10.80811       -128.6615
2.364                  -11.04987          -130.2
2.368                   -11.2964       -131.7948
2.372                  -11.54762         -133.45
2.376                   -11.8034       -135.1702
2.38                   -12.06354       -136.9602
2.384                  -12.32778       -138.8253
2.388                  -12.59579       -140.7712
2.392                  -12.86714       -142.8038
2.396                  -13.14125       -144.9294
2.4                    -13.41746       -147.1545
2.404                   -13.6949       -149.4859