! TOUCHSTONE file generated by CST MICROWAVE STUDIO
! Date and time: Fri May  6 09:22:54 2022
! Project name: ant1_ceramic_sweep_10porcent.cst
! Parameters = {e=0.035; h=1.6; i=0.8; l1=0.5; l2=17; ls=80; wl=1.7; ws=27}
! Header version: 2018
! Port assignment regex: !\s*Touchstone port\s*([0-9]+)\s*=\s*(CST MWS port|CST DS port)\s*([0-9]+|Zmin|Zmax)\s*\(\"(.*)\"\)(\s*mode\s*([0-9]+))?.*
! Touchstone port assignment:
! Touchstone port 1 = CST MWS port 1 ("")
# GHz S DB R 50
0                   -0.000102509              -0
0.004               -0.000115336     -0.06008295
0.008              -0.0001538195      -0.1201581
0.012              -0.0002164144      -0.1802175
0.016              -0.0003046875      -0.2402534
0.02                -0.000419175      -0.3002581
0.024              -0.0005567946      -0.3602239
0.028              -0.0007191283      -0.4201434
0.032               -0.000906728      -0.4800092
0.036                -0.00111549      -0.5398137
0.04                -0.001348565      -0.5995502
0.044               -0.001603411      -0.6592115
0.048               -0.001880597      -0.7187912
0.052                -0.00217811      -0.7782824
0.056               -0.002494971      -0.8376791
0.06                -0.002831762      -0.8969754
0.064               -0.003186996      -0.9561653
0.068               -0.003560741       -1.015244
0.072               -0.003950478       -1.074205
0.076               -0.004355245       -1.133045
0.08                -0.004775634        -1.19176
0.084                -0.00521017       -1.250343
0.088               -0.005655303       -1.308793
0.092               -0.006113699       -1.367107
0.096               -0.006580779       -1.425279
0.1                 -0.007056098       -1.483309
0.104               -0.007540774       -1.541193
0.108               -0.008031255       -1.598931
0.112               -0.008527617       -1.656521
0.116               -0.009027863       -1.713962
0.12                 -0.00952999       -1.771253
0.124                -0.01003459       -1.828394
0.128                -0.01053862       -1.885386
0.132                -0.01104162       -1.942229
0.136                -0.01154158       -1.998925
0.14                 -0.01203804       -2.055475
0.144                -0.01253003       -2.111881
0.148                -0.01301395       -2.168146
0.152                -0.01349192       -2.224272
0.156                -0.01396088       -2.280264
0.16                  -0.0144193       -2.336125
0.164                -0.01486619       -2.391858
0.168                -0.01530155       -2.447469
0.172                -0.01572281       -2.502962
0.176                   -0.01613       -2.558343
0.18                 -0.01652103       -2.613617
0.184                -0.01689539       -2.668791
0.188                -0.01725204       -2.723871
0.192                -0.01759045       -2.778863
0.196                -0.01790904       -2.833775
0.2                  -0.01820674       -2.888613
0.204                -0.01848405       -2.943386
0.208                -0.01873937       -2.998102
0.212                -0.01897161       -3.052768
0.216                -0.01918177       -3.107392
0.22                 -0.01936718       -3.161984
0.224                -0.01952934       -3.216551
0.228                -0.01966558       -3.271104
0.232                -0.01977739        -3.32565
0.236                -0.01986416       -3.380199
0.24                 -0.01992476       -3.434761
0.244                -0.01996014       -3.489344
0.248                -0.01996915       -3.543957
0.252                 -0.0199522       -3.598612
0.256                -0.01990972       -3.653315
0.26                 -0.01984156       -3.708079
0.264                -0.01974762        -3.76291
0.268                -0.01962829       -3.817819
0.272                -0.01948291       -3.872816
0.276                -0.01931393       -3.927909
0.28                  -0.0191202       -3.983107
0.284                -0.01890207        -4.03842
0.288                -0.01866098       -4.093855
0.292                 -0.0183983       -4.149423
0.296                -0.01811131       -4.205129
0.3                  -0.01780451       -4.260984
0.304                -0.01747725       -4.316994
0.308                -0.01712882       -4.373169
0.312                 -0.0167622       -4.429513
0.316                -0.01637774       -4.486036
0.32                 -0.01597735       -4.542743
0.324                -0.01556036       -4.599642
0.328                -0.01512868       -4.656737
0.332                -0.01468319       -4.714035
0.336                -0.01422529       -4.771541
0.34                 -0.01375586       -4.829259
0.344                -0.01327579       -4.887196
0.348                 -0.0127875       -4.945354
0.352                -0.01229139       -5.003738
0.356                -0.01178936       -5.062351
0.36                 -0.01128129       -5.121194
0.364                -0.01077117       -5.180272
0.368                -0.01025733       -5.239586
0.372               -0.009744309       -5.299138
0.376               -0.009229891       -5.358928
0.38                -0.008717588       -5.418958
0.384               -0.008208328       -5.479229
0.388               -0.007703573       -5.539738
0.392                -0.00720528       -5.600486
0.396               -0.006712862       -5.661471
0.4                 -0.006229821       -5.722693
0.404                -0.00575559        -5.78415
0.408               -0.005293195       -5.845839
0.412               -0.004843108       -5.907756
0.416               -0.004405782       -5.969899
0.42                 -0.00398376       -6.032265
0.424               -0.003578562       -6.094849
0.428               -0.003188077       -6.157647
0.432               -0.002818007       -6.220655
0.436               -0.002465732       -6.283866
0.44                -0.002133327       -6.347277
0.444               -0.001822349       -6.410881
0.448               -0.001533869       -6.474672
0.452               -0.001266351       -6.538642
0.456               -0.001023978       -6.602787
0.46               -0.0008057281       -6.667101
0.464              -0.0006122005       -6.731574
0.468              -0.0004439782         -6.7962
0.472              -0.0003026776       -6.860972
0.476              -0.0001878638       -6.925881
0.48               -9.908427e-05       -6.990921
0.484              -3.854801e-05       -7.056082
0.488              -5.789976e-06       -7.121358
0.492              -4.465631e-07       -7.186739
0.496               -2.26102e-05       -7.252218
0.5                -7.395203e-05       -7.317788
0.504              -0.0001541116       -7.383438
0.508              -0.0002611286       -7.449161
0.512              -0.0003951525       -7.514949
0.516              -0.0005589223       -7.580793
0.52               -0.0007484256       -7.646686
0.524              -0.0009674396        -7.71262
0.528               -0.001211999       -7.778586
0.532               -0.001483274       -7.844578
0.536               -0.001780391       -7.910587
0.54                -0.002102461       -7.976607
0.544               -0.002449188       -8.042627
0.548                -0.00281911       -8.108644
0.552               -0.003212362       -8.174652
0.556               -0.003628152        -8.24064
0.56                -0.004064993       -8.306606
0.564               -0.004522048       -8.372543
0.568               -0.004999412       -8.438446
0.572               -0.005493674       -8.504307
0.576               -0.006006476       -8.570124
0.58                 -0.00653428       -8.635893
0.584               -0.007076267       -8.701606
0.588               -0.007633476       -8.767265
0.592               -0.008203498       -8.832863
0.596               -0.008782788       -8.898396
0.6                 -0.009372385       -8.963867
0.604               -0.009969868       -9.029269
0.608                -0.01057581       -9.094602
0.612                -0.01118605       -9.159867
0.616                -0.01180117       -9.225062
0.62                 -0.01241915       -9.290187
0.624                -0.01303739       -9.355241
0.628                -0.01365796       -9.420228
0.632                -0.01427407       -9.485148
0.636                -0.01488834       -9.550002
0.64                 -0.01549963       -9.614796
0.644                -0.01610378       -9.679528
0.648                -0.01669965       -9.744203
0.652                -0.01728813       -9.808828
0.656                -0.01786658       -9.873405
0.66                 -0.01843281       -9.937936
0.664                -0.01898768       -10.00243
0.668                -0.01952789        -10.0669
0.672                -0.02005329       -10.13134
0.676                -0.02056266       -10.19576
0.68                 -0.02105317       -10.26016
0.684                -0.02152513       -10.32457
0.688                -0.02197828       -10.38898
0.692                -0.02240977        -10.4534
0.696                -0.02281887       -10.51784
0.7                  -0.02320621       -10.58231
0.704                -0.02356895       -10.64682
0.708                -0.02390781       -10.71138
0.712                -0.02422298         -10.776
0.716                -0.02451044       -10.84069
0.72                 -0.02477302       -10.90546
0.724                -0.02500763       -10.97032
0.728                -0.02521556       -11.03528
0.732                -0.02539474       -11.10035
0.736                 -0.0255464       -11.16555
0.74                 -0.02567014       -11.23088
0.744                 -0.0257649       -11.29636
0.748                 -0.0258319         -11.362
0.752                -0.02586968        -11.4278
0.756                -0.02587919       -11.49379
0.76                 -0.02586062       -11.55998
0.764                -0.02581397       -11.62637
0.768                -0.02574032       -11.69297
0.772                -0.02563875        -11.7598
0.776                -0.02551075       -11.82688
0.78                 -0.02535592        -11.8942
0.784                -0.02517632       -11.96178
0.788                 -0.0249705       -12.02964
0.792                -0.02474205       -12.09778
0.796                 -0.0244895       -12.16622
0.8                  -0.02421546       -12.23496
0.804                -0.02391844       -12.30401
0.808                -0.02360262       -12.37339
0.812                -0.02326753        -12.4431
0.816                 -0.0229138       -12.51315
0.82                 -0.02254298       -12.58356
0.824                -0.02215729       -12.65432
0.828                -0.02175775       -12.72545
0.832                -0.02134562       -12.79696
0.836                -0.02092193       -12.86885
0.84                 -0.02048836       -12.94112
0.844                -0.02004667       -13.01379
0.848                -0.01959847       -13.08686
0.852                -0.01914452       -13.16034
0.856                -0.01868749       -13.23422
0.86                 -0.01822818       -13.30852
0.864                -0.01777028       -13.38324
0.868                -0.01731201       -13.45837
0.872                -0.01685831       -13.53393
0.876                -0.01640832       -13.60992
0.88                 -0.01596543       -13.68633
0.884                -0.01553049       -13.76317
0.888                -0.01510687       -13.84044
0.892                -0.01469384       -13.91814
0.896                -0.01429339       -13.99626
0.9                  -0.01390887       -14.07482
0.904                -0.01354177       -14.15379
0.908                -0.01319198       -14.23319
0.912                -0.01286199       -14.31301
0.916                 -0.0125533       -14.39325
0.92                 -0.01226788        -14.4739
0.924                -0.01200729       -14.55496
0.928                -0.01177308       -14.63643
0.932                -0.01156536        -14.7183
0.936                -0.01138601       -14.80056
0.94                 -0.01123635       -14.88321
0.944                -0.01111785       -14.96624
0.948                 -0.0110327       -15.04965
0.952                -0.01097951       -15.13343
0.956                -0.01096093       -15.21757
0.96                 -0.01097834       -15.30207
0.964                -0.01103164       -15.38691
0.968                -0.01112227       -15.47209
0.972                -0.01124967        -15.5576
0.976                -0.01141743       -15.64344
0.98                 -0.01162242       -15.72958
0.984                 -0.0118672       -15.81603
0.988                -0.01215234       -15.90278
0.992                -0.01247773       -15.98981
0.996                -0.01284396       -16.07712
1                    -0.01325099        -16.1647
1.004                -0.01369801       -16.25254
1.008                -0.01418571       -16.34062
1.012                -0.01471509       -16.42895
1.016                -0.01528422       -16.51751
1.02                 -0.01589411       -16.60629
1.024                -0.01654268       -16.69529
1.028                -0.01723071        -16.7845
1.032                -0.01795825       -16.87386
1.036                -0.01872452       -16.96345
1.04                 -0.01952778       -17.05322
1.044                -0.02036773       -17.14314
1.048                -0.02124388       -17.23324
1.052                -0.02215447       -17.32348
1.056                -0.02309964       -17.41391
1.06                  -0.0240766       -17.50445
1.064                -0.02508635       -17.59513
1.068                -0.02612649       -17.68595
1.072                -0.02719506        -17.7769
1.076                -0.02829225       -17.86796
1.08                 -0.02941444       -17.95915
1.084                 -0.0305634       -18.05046
1.088                -0.03173419       -18.14185
1.092                -0.03292763       -18.23337
1.096                -0.03414034       -18.32501
1.1                  -0.03537234       -18.41675
1.104                -0.03662136       -18.50857
1.108                 -0.0378851       -18.60053
1.112                -0.03916227       -18.69261
1.116                -0.04045105       -18.78473
1.12                 -0.04174948       -18.87702
1.124                -0.04305615       -18.96939
1.128                -0.04436934       -19.06188
1.132                -0.04568665       -19.15449
1.136                -0.04700701       -19.24723
1.14                 -0.04832663        -19.3401
1.144                -0.04964656        -19.4331
1.148                -0.05096266       -19.52623
1.152                -0.05227529       -19.61953
1.156                -0.05358049       -19.71297
1.16                 -0.05487872       -19.80658
1.164                -0.05616707       -19.90037
1.168                -0.05744363       -19.99434
1.172                -0.05870805       -20.08851
1.176                 -0.0599571       -20.18289
1.18                 -0.06119227       -20.27749
1.184                -0.06240808       -20.37232
1.188                -0.06360626       -20.46739
1.192                -0.06478504       -20.56272
1.196                -0.06594145       -20.65833
1.2                  -0.06707764       -20.75423
1.204                -0.06818919       -20.85043
1.208                -0.06927753       -20.94695
1.212                -0.07034062       -21.04381
1.216                -0.07137785       -21.14102
1.22                 -0.07238963        -21.2386
1.224                -0.07337358       -21.33657
1.228                -0.07433028       -21.43495
1.232                -0.07525953       -21.53375
1.236                 -0.0761608       -21.63299
1.24                 -0.07703453        -21.7327
1.244                -0.07787919       -21.83289
1.248                -0.07869642       -21.93358
1.252                -0.07948659       -22.03478
1.256                 -0.0802478       -22.13653
1.26                  -0.0809829       -22.23883
1.264                -0.08169112       -22.34171
1.268                -0.08237388       -22.44519
1.272                -0.08303144       -22.54929
1.276                -0.08366557       -22.65403
1.28                 -0.08427541       -22.75942
1.284                -0.08486413       -22.86548
1.288                -0.08543218       -22.97224
1.292                -0.08598065       -23.07971
1.296                -0.08651063       -23.18792
1.3                  -0.08702509       -23.29687
1.304                -0.08752536        -23.4066
1.308                -0.08801235       -23.51711
1.312                -0.08848829       -23.62842
1.316                 -0.0889557       -23.74055
1.32                   -0.089416       -23.85352
1.324                -0.08987177       -23.96734
1.328                -0.09032503       -24.08203
1.332                -0.09077739       -24.19759
1.336                -0.09123345       -24.31406
1.34                  -0.0916937       -24.43144
1.344                -0.09216115       -24.54974
1.348                -0.09263848       -24.66897
1.352                -0.09313004       -24.78916
1.356                 -0.0936353       -24.91031
1.36                 -0.09415937       -25.03242
1.364                -0.09470321       -25.15552
1.368                -0.09527332        -25.2796
1.372                -0.09586916       -25.40469
1.376                -0.09649461       -25.53077
1.38                 -0.09715243       -25.65788
1.384                -0.09784666         -25.786
1.388                 -0.0985792       -25.91515
1.392                -0.09935278       -26.04533
1.396                 -0.1001717       -26.17653
1.4                   -0.1010375       -26.30879
1.404                 -0.1019545       -26.44208
1.408                 -0.1029238       -26.57641
1.412                 -0.1039495       -26.71179
1.416                 -0.1050353       -26.84821
1.42                  -0.1061832       -26.98569
1.424                 -0.1073943        -27.1242
1.428                 -0.1086749       -27.26376
1.432                  -0.110025       -27.40436
1.436                 -0.1114467         -27.546
1.44                  -0.1129456       -27.68868
1.444                 -0.1145216       -27.83239
1.448                 -0.1161786       -27.97713
1.452                 -0.1179178        -28.1229
1.456                 -0.1197411       -28.26968
1.46                  -0.1216531       -28.41749
1.464                 -0.1236537        -28.5663
1.468                 -0.1257449       -28.71611
1.472                 -0.1279302       -28.86693
1.476                 -0.1302093       -29.01873
1.48                  -0.1325859       -29.17151
1.484                 -0.1350611       -29.32527
1.488                 -0.1376347          -29.48
1.492                   -0.14031       -29.63569
1.496                 -0.1430879       -29.79234
1.5                   -0.1459687       -29.94993
1.504                 -0.1489546       -30.10847
1.508                 -0.1520444       -30.26793
1.512                  -0.155242       -30.42831
1.516                 -0.1585459       -30.58961
1.52                  -0.1619569       -30.75183
1.524                 -0.1654758       -30.91495
1.528                 -0.1691025       -31.07896
1.532                 -0.1728386       -31.24386
1.536                 -0.1766821       -31.40965
1.54                  -0.1806343       -31.57631
1.544                 -0.1846945       -31.74386
1.548                 -0.1888628       -31.91227
1.552                 -0.1931384       -32.08154
1.556                 -0.1975201       -32.25167
1.56                  -0.2020092       -32.42267
1.564                 -0.2066043       -32.59453
1.568                 -0.2113044       -32.76724
1.572                 -0.2161086       -32.94081
1.576                 -0.2210157       -33.11523
1.58                  -0.2260245       -33.29052
1.584                 -0.2311348       -33.46666
1.588                 -0.2363457       -33.64367
1.592                  -0.241654       -33.82155
1.596                 -0.2470606        -34.0003
1.6                   -0.2525634       -34.17994
1.604                 -0.2581607       -34.36046
1.608                 -0.2638502       -34.54188
1.612                 -0.2696314        -34.7242
1.616                 -0.2755041       -34.90744
1.62                  -0.2814633       -35.09161
1.624                 -0.2875127       -35.27673
1.628                 -0.2936455       -35.46281
1.632                 -0.2998639       -35.64985
1.636                  -0.306164        -35.8379
1.64                  -0.3125456       -36.02695
1.644                 -0.3190069       -36.21703
1.648                 -0.3255466       -36.40817
1.652                 -0.3321653       -36.60039
1.656                 -0.3388588       -36.79371
1.66                  -0.3456269       -36.98816
1.664                 -0.3524693       -37.18375
1.668                 -0.3593833       -37.38053
1.672                 -0.3663702       -37.57852
1.676                 -0.3734285       -37.77776
1.68                  -0.3805567       -37.97827
1.684                 -0.3877557        -38.1801
1.688                 -0.3950233       -38.38327
1.692                  -0.402361       -38.58782
1.696                 -0.4097682        -38.7938
1.7                   -0.4172448       -39.00124
1.704                 -0.4247925       -39.21018
1.708                 -0.4324096       -39.42066
1.712                 -0.4400981       -39.63273
1.716                 -0.4478577       -39.84643
1.72                  -0.4556923        -40.0618
1.724                 -0.4636009       -40.27891
1.728                 -0.4715873       -40.49778
1.732                 -0.4796503       -40.71846
1.736                 -0.4877938       -40.94102
1.74                  -0.4960201       -41.16549
1.744                 -0.5043326       -41.39194
1.748                 -0.5127326        -41.6204
1.752                 -0.5212235       -41.85094
1.756                 -0.5298116       -42.08361
1.76                  -0.5384975       -42.31846
1.764                  -0.547285       -42.55554
1.768                  -0.556182       -42.79492
1.772                   -0.56519       -43.03664
1.776                 -0.5743152       -43.28076
1.78                  -0.5835638       -43.52735
1.784                 -0.5929391       -43.77645
1.788                 -0.6024491       -44.02812
1.792                  -0.612098       -44.28242
1.796                 -0.6218953        -44.5394
1.8                   -0.6318449       -44.79913
1.804                  -0.641958       -45.06166
1.808                 -0.6522376       -45.32703
1.812                 -0.6626941       -45.59532
1.816                 -0.6733362       -45.86659
1.82                  -0.6841711       -46.14087
1.824                 -0.6952086       -46.41825
1.828                 -0.7064573       -46.69875
1.832                 -0.7179264       -46.98244
1.836                 -0.7296256       -47.26937
1.84                  -0.7415682       -47.55961
1.844                 -0.7537609        -47.8532
1.848                 -0.7662156       -48.15019
1.852                 -0.7789442       -48.45064
1.856                 -0.7919564       -48.75458
1.86                  -0.8052667        -49.0621
1.864                 -0.8188826        -49.3732
1.868                 -0.8328212       -49.68798
1.872                  -0.847092       -50.00645
1.876                 -0.8617096       -50.32867
1.88                  -0.8766855       -50.65468
1.884                 -0.8920345       -50.98454
1.888                 -0.9077697       -51.31828
1.892                 -0.9239041       -51.65594
1.896                 -0.9404525       -51.99757
1.9                   -0.9574308       -52.34321
1.904                 -0.9748515       -52.69289
1.908                 -0.9927309       -53.04667
1.912                  -1.011084       -53.40457
1.916                  -1.029924       -53.76663
1.92                   -1.049271       -54.13289
1.924                  -1.069136       -54.50337
1.928                  -1.089538       -54.87813
1.932                  -1.110493       -55.25718
1.936                  -1.132017       -55.64056
1.94                   -1.154126        -56.0283
1.944                  -1.176839       -56.42043
1.948                   -1.20017       -56.81696
1.952                  -1.224141       -57.21796
1.956                  -1.248764       -57.62342
1.96                   -1.274061       -58.03339
1.964                  -1.300048       -58.44788
1.968                  -1.326742       -58.86691
1.972                  -1.354164        -59.2905
1.976                  -1.382331       -59.71872
1.98                   -1.411262       -60.15154
1.984                  -1.440978         -60.589
1.988                  -1.471492       -61.03112
1.992                   -1.50283       -61.47793
1.996                  -1.535008       -61.92944
2                      -1.568046       -62.38567
2.004                  -1.601965       -62.84664
2.008                  -1.636785       -63.31239
2.012                  -1.672525       -63.78291
2.016                  -1.709208       -64.25823
2.02                    -1.74685       -64.73837
2.024                  -1.785477       -65.22337
2.028                  -1.825109       -65.71323
2.032                  -1.865767       -66.20797
2.036                  -1.907472       -66.70761
2.04                   -1.950247       -67.21218
2.044                  -1.994114       -67.72169
2.048                  -2.039095       -68.23619
2.052                  -2.085214       -68.75567
2.056                  -2.132492       -69.28015
2.06                   -2.180956       -69.80969
2.064                  -2.230626       -70.34429
2.068                  -2.281529         -70.884
2.072                  -2.333687       -71.42883
2.076                  -2.387128       -71.97881
2.08                   -2.441874       -72.53398
2.084                  -2.497953       -73.09437
2.088                  -2.555388       -73.66002
2.092                  -2.614209       -74.23097
2.096                  -2.674441       -74.80726
2.1                    -2.736112       -75.38893
2.104                  -2.799249       -75.97601
2.108                  -2.863881       -76.56859
2.112                  -2.930038       -77.16668
2.116                  -2.997749       -77.77036
2.12                   -3.067043       -78.37968
2.124                  -3.137952        -78.9947
2.128                  -3.210506       -79.61551
2.132                  -3.284739       -80.24215
2.136                  -3.360683       -80.87472
2.14                   -3.438371       -81.51329
2.144                  -3.517838       -82.15795
2.148                  -3.599121        -82.8088
2.152                  -3.682252       -83.46593
2.156                  -3.767271       -84.12944
2.16                   -3.854215       -84.79949
2.164                  -3.943124       -85.47614
2.168                  -4.034037       -86.15954
2.172                  -4.126994       -86.84983
2.176                  -4.222038       -87.54717
2.18                   -4.319214       -88.25171
2.184                  -4.418563       -88.96363
2.188                  -4.520134       -89.68307
2.192                  -4.623974       -90.41027
2.196                   -4.73013       -91.14541
2.2                    -4.838652       -91.88873
2.204                  -4.949594       -92.64046
2.208                  -5.063007       -93.40082
2.212                  -5.178946       -94.17012
2.216                  -5.297469       -94.94863
2.22                   -5.418632       -95.73667
2.224                  -5.542497       -96.53456
2.228                  -5.669126       -97.34266
2.232                  -5.798584       -98.16136
2.236                  -5.930934       -98.99106
2.24                   -6.066248        -99.8322
2.244                  -6.204595       -100.6852
2.248                  -6.346048       -101.5507
2.252                  -6.490681       -102.4292
2.256                  -6.638573       -103.3212
2.26                   -6.789802       -104.2273
2.264                  -6.944452       -105.1484
2.268                  -7.102606        -106.085
2.272                  -7.264351        -107.038
2.276                  -7.429777       -108.0083
2.28                   -7.598974       -108.9967
2.284                  -7.772037       -110.0043
2.288                   -7.94906       -111.0321
2.292                  -8.130141       -112.0813
2.296                  -8.315376       -113.1532
2.3                    -8.504866       -114.2492
2.304                   -8.69871       -115.3706
2.308                  -8.897004       -116.5192
2.312                  -9.099852       -117.6967
2.316                  -9.307343       -118.9051
2.32                   -9.519575       -120.1463
2.324                  -9.736629       -121.4226
2.328                  -9.958587       -122.7366
2.332                  -10.18552       -124.0908
2.336                  -10.41748       -125.4883
2.34                   -10.65452       -126.9321
2.344                  -10.89665       -128.4258
2.348                  -11.14386       -129.9731
2.352                  -11.39613       -131.5781
2.356                  -11.65337       -133.2453
2.36                   -11.91545       -134.9794
2.364                  -12.18221       -136.7857
2.368                  -12.45336       -138.6697
2.372                  -12.72858       -140.6376
2.376                  -13.00742       -142.6956
2.38                    -13.2893       -144.8506
2.384                   -13.5735       -147.1096
2.388                  -13.85913       -149.4799
2.392                  -14.14511       -151.9691
2.396                  -14.43012       -154.5844
2.4                     -14.7126       -157.3329
2.404                  -14.99069       -160.2212