! TOUCHSTONE file generated by CST MICROWAVE STUDIO
! Date and time: Fri May  6 09:22:49 2022
! Project name: ant1_ceramic_sweep_10porcent.cst
! Parameters = {e=0.035; h=1.6; i=0.8; l1=0.495; l2=17; ls=80; wl=1.7; ws=30}
! Header version: 2018
! Port assignment regex: !\s*Touchstone port\s*([0-9]+)\s*=\s*(CST MWS port|CST DS port)\s*([0-9]+|Zmin|Zmax)\s*\(\"(.*)\"\)(\s*mode\s*([0-9]+))?.*
! Touchstone port assignment:
! Touchstone port 1 = CST MWS port 1 ("")
# GHz S DB R 50
0                  -0.0001159699              -0
0.004              -0.0001293095     -0.06011479
0.008               -0.000167778      -0.1202216
0.012               -0.000232419      -0.1803124
0.016              -0.0003232462      -0.2403792
0.02               -0.0004387256      -0.3004142
0.024               -0.000579917      -0.3604096
0.028               -0.000744779      -0.4203576
0.032              -0.0009354175      -0.4802507
0.036               -0.001149283      -0.5400816
0.04                 -0.00138642      -0.5998429
0.044               -0.001645841      -0.6595277
0.048               -0.001928117       -0.719129
0.052               -0.002230716      -0.7786402
0.056               -0.002554217       -0.838055
0.06                -0.002897648      -0.8973673
0.064               -0.003259523      -0.9565711
0.068                -0.00364043       -1.015661
0.072               -0.004037851       -1.074632
0.076               -0.004450309       -1.133479
0.08                -0.004879434       -1.192197
0.084               -0.005321159       -1.250782
0.088               -0.005775045       -1.309231
0.092               -0.006241691        -1.36754
0.096               -0.006718587       -1.425705
0.1                 -0.007203739       -1.483725
0.104               -0.007697229       -1.541597
0.108               -0.008197579       -1.599319
0.112               -0.008702277       -1.656889
0.116               -0.009211916       -1.714307
0.12                -0.009724498       -1.771573
0.124                -0.01023802       -1.828685
0.128                -0.01075152       -1.885645
0.132                -0.01126453       -1.942453
0.136                -0.01177454       -1.999111
0.14                 -0.01228056       -2.055619
0.144                 -0.0127811       -2.111981
0.148                -0.01327516       -2.168198
0.152                -0.01376279       -2.224274
0.156                 -0.0142404       -2.280212
0.16                 -0.01470752       -2.336015
0.164                -0.01516416       -2.391689
0.168                -0.01560777       -2.447237
0.172                 -0.0160368       -2.502665
0.176                -0.01645179       -2.557977
0.18                 -0.01685066       -2.613181
0.184                 -0.0172329       -2.668282
0.188                -0.01759643       -2.723286
0.192                -0.01794176         -2.7782
0.196                -0.01826679       -2.833032
0.2                  -0.01857098       -2.887788
0.204                -0.01885377       -2.942476
0.208                -0.01911408       -2.997106
0.212                -0.01935137       -3.051684
0.216                -0.01956556       -3.106219
0.22                 -0.01975504        -3.16072
0.224                -0.01992028       -3.215196
0.228                -0.02006067       -3.269655
0.232                -0.02017562       -3.324107
0.236                -0.02026245       -3.378561
0.24                 -0.02032574       -3.433028
0.244                -0.02036176       -3.487514
0.248                -0.02037144       -3.542032
0.252                 -0.0203552        -3.59659
0.256                -0.02031188       -3.651197
0.26                 -0.02024291       -3.705864
0.264                -0.02014715         -3.7606
0.268                -0.02002601       -3.815415
0.272                -0.01987937       -3.870316
0.276                -0.01970707       -3.925316
0.28                 -0.01951004       -3.980421
0.284                -0.01928863       -4.035641
0.288                -0.01904269       -4.090986
0.292                -0.01877415       -4.146464
0.296                -0.01848338       -4.202084
0.3                  -0.01817022       -4.257852
0.304                -0.01783658        -4.31378
0.308                -0.01748386       -4.369873
0.312                -0.01711088       -4.426137
0.316                -0.01671848       -4.482583
0.32                 -0.01631017       -4.539214
0.324                -0.01588576        -4.59604
0.328                -0.01544613       -4.653066
0.332                -0.01499216       -4.710297
0.336                -0.01452525       -4.767738
0.34                 -0.01404679       -4.825396
0.344                -0.01355871       -4.883273
0.348                -0.01306034       -4.941375
0.352                -0.01255564       -4.999708
0.356                -0.01204295        -5.05827
0.36                 -0.01152626       -5.117068
0.364                -0.01100542       -5.176103
0.368                -0.01048238       -5.235378
0.372               -0.009957523       -5.294893
0.376               -0.009433842       -5.354651
0.38                -0.008911732       -5.414651
0.384               -0.008391585       -5.474894
0.388               -0.007877454       -5.535381
0.392               -0.007369237       -5.596109
0.396               -0.006866841       -5.657078
0.4                 -0.006374831       -5.718288
0.404               -0.005891058       -5.779735
0.408               -0.005419604       -5.841417
0.412                -0.00495989       -5.903331
0.416               -0.004513932       -5.965473
0.42                 -0.00408219       -6.027842
0.424               -0.003667755       -6.090431
0.428               -0.003270583       -6.153238
0.432               -0.002891182       -6.216256
0.436               -0.002531092       -6.279481
0.44                 -0.00219185       -6.342909
0.444               -0.001874017       -6.406531
0.448               -0.001577586       -6.470342
0.452               -0.001305698       -6.534337
0.456               -0.001056311       -6.598508
0.46               -0.0008325979       -6.662847
0.464              -0.0006345989       -6.727349
0.468              -0.0004623582       -6.792007
0.472              -0.0003159942        -6.85681
0.476              -0.0001965831       -6.921753
0.48               -0.0001058049       -6.986826
0.484              -4.112519e-05       -7.052023
0.488              -6.805261e-06       -7.117337
0.492              -4.019829e-07       -7.182755
0.496              -2.248839e-05       -7.248274
0.5                -7.223254e-05        -7.31388
0.504              -0.0001518094       -7.379568
0.508              -0.0002587278        -7.44533
0.512              -0.0003947442       -7.511156
0.516              -0.0005604597        -7.57704
0.52               -0.0007519298       -7.642971
0.524              -0.0009724368        -7.70894
0.528               -0.001219468       -7.774944
0.532                -0.00149483       -7.840971
0.536               -0.001794995       -7.907014
0.54                -0.002121713       -7.973066
0.544               -0.002472528        -8.03912
0.548               -0.002848174       -8.105166
0.552               -0.003247215         -8.1712
0.556                -0.00366979       -8.237217
0.56                -0.004113501       -8.303208
0.564               -0.004576942       -8.369166
0.568               -0.005061806       -8.435089
0.572               -0.005564093       -8.500969
0.576               -0.006083455         -8.5668
0.58                -0.006620492        -8.63258
0.584               -0.007172752       -8.698305
0.588               -0.007738282        -8.76397
0.592               -0.008316152       -8.829571
0.596               -0.008904884       -8.895108
0.6                 -0.009505129       -8.960575
0.604                 -0.0101133       -9.025972
0.608                -0.01072843       -9.091298
0.612                -0.01134849       -9.156551
0.616                -0.01197459        -9.22173
0.62                 -0.01260259       -9.286835
0.624                -0.01323248       -9.351869
0.628                -0.01386169        -9.41683
0.632                -0.01448968       -9.481721
0.636                -0.01511486       -9.546543
0.64                 -0.01573562         -9.6113
0.644                -0.01634986       -9.675993
0.648                -0.01695645       -9.740625
0.652                -0.01755629       -9.805204
0.656                -0.01814411       -9.869731
0.66                 -0.01872084       -9.934211
0.664                -0.01928526       -9.998652
0.668                -0.01983414       -10.06306
0.672                -0.02036886       -10.12743
0.676                -0.02088655       -10.19179
0.68                 -0.02138654       -10.25613
0.684                -0.02186755       -10.32046
0.688                 -0.0223273       -10.38479
0.692                -0.02276749       -10.44914
0.696                -0.02318434        -10.5135
0.7                    -0.023578       -10.57789
0.704                -0.02394768       -10.64232
0.708                -0.02429248       -10.70679
0.712                -0.02461322       -10.77132
0.716                -0.02490576       -10.83592
0.72                 -0.02517189        -10.9006
0.724                -0.02541075       -10.96536
0.728                -0.02562183       -11.03023
0.732                -0.02580438       -11.09521
0.736                -0.02595883       -11.16031
0.74                 -0.02608433       -11.22554
0.744                -0.02618098       -11.29093
0.748                -0.02624833       -11.35646
0.752                -0.02628698       -11.42217
0.756                -0.02629637       -11.48806
0.76                 -0.02627617       -11.55415
0.764                -0.02622892       -11.62044
0.768                 -0.0261516       -11.68694
0.772                -0.02604841       -11.75368
0.776                -0.02591671       -11.82065
0.78                 -0.02575865       -11.88788
0.784                -0.02557433       -11.95537
0.788                -0.02536423       -12.02314
0.792                -0.02513044       -12.09119
0.796                  -0.024872       -12.15953
0.8                  -0.02459101       -12.22819
0.804                -0.02428646       -12.29715
0.808                -0.02396357       -12.36645
0.812                -0.02362035       -12.43608
0.816                -0.02325835       -12.50606
0.82                 -0.02287875       -12.57639
0.824                 -0.0224836       -12.64708
0.828                -0.02207511       -12.71814
0.832                -0.02165232       -12.78958
0.836                -0.02121849        -12.8614
0.84                 -0.02077412       -12.93362
0.844                -0.02032098       -13.00623
0.848                -0.01986176       -13.07925
0.852                -0.01939619       -13.15268
0.856                -0.01892736       -13.22652
0.86                  -0.0184577       -13.30078
0.864                -0.01798622       -13.37546
0.868                -0.01751634       -13.45056
0.872                -0.01704933       -13.52609
0.876                -0.01658694       -13.60205
0.88                 -0.01613156       -13.67845
0.884                -0.01568489       -13.75527
0.888                -0.01524791       -13.83253
0.892                 -0.0148219       -13.91022
0.896                -0.01440984       -13.98834
0.9                   -0.0140126       -14.06689
0.904                -0.01363202       -14.14588
0.908                -0.01327075       -14.22529
0.912                -0.01292858       -14.30512
0.916                -0.01260958       -14.38538
0.92                 -0.01231223       -14.46605
0.924                -0.01204002       -14.54714
0.928                -0.01179356       -14.62863
0.932                 -0.0115759       -14.71053
0.936                -0.01138616       -14.79283
0.94                 -0.01122635       -14.87552
0.944                 -0.0110986        -14.9586
0.948                -0.01100372       -15.04205
0.952                -0.01094207       -15.12588
0.956                -0.01091545       -15.21008
0.96                 -0.01092466       -15.29463
0.964                 -0.0109706       -15.37953
0.968                -0.01105387       -15.46477
0.972                -0.01117593       -15.55035
0.976                -0.01133763       -15.63625
0.98                 -0.01153761       -15.72246
0.984                -0.01177813       -15.80898
0.988                -0.01205906        -15.8958
0.992                -0.01238113       -15.98291
0.996                -0.01274465       -16.07029
1                    -0.01314879       -16.15795
1.004                -0.01359432       -16.24586
1.008                -0.01408114       -16.33403
1.012                -0.01461075       -16.42243
1.016                -0.01518007       -16.51106
1.02                 -0.01579082       -16.59993
1.024                -0.01644158       -16.68901
1.028                -0.01713297       -16.77827
1.032                -0.01786284       -16.86774
1.036                -0.01863219       -16.95741
1.04                 -0.01943963       -17.04724
1.044                -0.02028415       -17.13723
1.048                -0.02116541       -17.22742
1.052                -0.02208313       -17.31774
1.056                -0.02303409       -17.40823
1.06                 -0.02401934       -17.49885
1.064                 -0.0250357       -17.58961
1.068                -0.02608426       -17.68048
1.072                -0.02716129       -17.77149
1.076                -0.02826743        -17.8626
1.08                 -0.02940017       -17.95385
1.084                -0.03055788       -18.04524
1.088                -0.03174067       -18.13668
1.092                -0.03294476       -18.22826
1.096                -0.03416859       -18.31995
1.1                  -0.03541341       -18.41172
1.104                -0.03667367        -18.5036
1.108                -0.03794923       -18.59559
1.112                 -0.0392397       -18.68766
1.116                -0.04054108       -18.77984
1.12                  -0.0418531       -18.87216
1.124                -0.04317316       -18.96453
1.128                -0.04449909       -19.05706
1.132                -0.04583032       -19.14969
1.136                -0.04716363       -19.24244
1.14                 -0.04849736       -19.33531
1.144                -0.04983051       -19.42831
1.148                -0.05116001       -19.52145
1.152                -0.05248697       -19.61474
1.156                -0.05380535       -19.70818
1.16                 -0.05511673       -19.80178
1.164                -0.05641908       -19.89555
1.168                 -0.0577085        -19.9895
1.172                -0.05898499       -20.08365
1.176                -0.06024738         -20.178
1.18                 -0.06149306       -20.27256
1.184                -0.06272096       -20.36736
1.188                -0.06393212        -20.4624
1.192                -0.06512136       -20.55769
1.196                 -0.0662895       -20.65326
1.2                  -0.06743533       -20.74911
1.204                 -0.0685573       -20.84526
1.208                -0.06965483       -20.94173
1.212                -0.07072664       -21.03853
1.216                -0.07177215       -21.13569
1.22                 -0.07279108       -21.23321
1.224                 -0.0737825       -21.33112
1.228                -0.07474652       -21.42944
1.232                -0.07568137       -21.52818
1.236                -0.07658732       -21.62736
1.24                 -0.07746625         -21.727
1.244                 -0.0783148       -21.82712
1.248                -0.07913566       -21.92774
1.252                -0.07992738       -22.02889
1.256                -0.08069144       -22.13057
1.26                 -0.08142759        -22.2328
1.264                -0.08213603       -22.33562
1.268                -0.08281973       -22.43904
1.272                -0.08347624       -22.54308
1.276                -0.08410811       -22.64775
1.28                 -0.08471532       -22.75308
1.284                -0.08530137       -22.85908
1.288                -0.08586562       -22.96579
1.292                -0.08640993       -23.07321
1.296                -0.08693452       -23.18136
1.3                  -0.08744314       -23.29027
1.304                  -0.087937       -23.39995
1.308                -0.08841714       -23.51042
1.312                -0.08888516       -23.62169
1.316                -0.08934409       -23.73379
1.32                 -0.08979495       -23.84673
1.324                -0.09024147       -23.96052
1.328                -0.09068493       -24.07519
1.332                -0.09112793       -24.19075
1.336                -0.09157232        -24.3072
1.34                 -0.09202086       -24.42457
1.344                -0.09247709       -24.54287
1.348                -0.09294188       -24.66212
1.352                -0.09341985       -24.78231
1.356                -0.09391347       -24.90348
1.36                 -0.09442439       -25.02562
1.364                -0.09495618       -25.14874
1.368                 -0.0955113       -25.27287
1.372                 -0.0960936       -25.39799
1.376                -0.09670432       -25.52413
1.38                 -0.09734919       -25.65129
1.384                -0.09802963       -25.77947
1.388                -0.09874696       -25.90869
1.392                -0.09950673       -26.03894
1.396                 -0.1003125       -26.17024
1.4                   -0.1011637       -26.30258
1.404                 -0.1020666       -26.43597
1.408                 -0.1030239       -26.57041
1.412                  -0.104036        -26.7059
1.416                 -0.1051092       -26.84244
1.42                  -0.1062434       -26.98004
1.424                 -0.1074437       -27.11868
1.428                 -0.1087121       -27.25839
1.432                 -0.1100502       -27.39913
1.436                 -0.1114627       -27.54093
1.44                  -0.1129503       -27.68376
1.444                 -0.1145168       -27.82764
1.448                 -0.1161638       -27.97256
1.452                 -0.1178954        -28.1185
1.456                 -0.1197121       -28.26548
1.46                  -0.1216165       -28.41347
1.464                 -0.1236108       -28.56248
1.468                 -0.1256972        -28.7125
1.472                 -0.1278765       -28.86351
1.476                 -0.1301534       -29.01553
1.48                  -0.1325277       -29.16854
1.484                 -0.1350015       -29.32253
1.488                 -0.1375745       -29.47748
1.492                 -0.1402505       -29.63341
1.496                 -0.1430291       -29.79029
1.5                    -0.145913       -29.94812
1.504                 -0.1489013        -30.1069
1.508                 -0.1519966       -30.26661
1.512                 -0.1551994       -30.42725
1.516                 -0.1585106       -30.58881
1.52                  -0.1619303       -30.75128
1.524                 -0.1654577       -30.91465
1.528                  -0.169095       -31.07892
1.532                 -0.1728414       -31.24409
1.536                 -0.1766975       -31.41014
1.54                  -0.1806638       -31.57707
1.544                 -0.1847393       -31.74488
1.548                 -0.1889235       -31.91356
1.552                  -0.193215        -32.0831
1.556                 -0.1976173       -32.25351
1.56                  -0.2021256       -32.42478
1.564                 -0.2067404        -32.5969
1.568                 -0.2114626       -32.76988
1.572                 -0.2162894       -32.94371
1.576                 -0.2212205       -33.11839
1.58                   -0.226256       -33.29395
1.584                 -0.2313913       -33.47035
1.588                 -0.2366287       -33.64763
1.592                 -0.2419654       -33.82576
1.596                 -0.2474022       -34.00477
1.6                   -0.2529342       -34.18465
1.604                 -0.2585621       -34.36542
1.608                 -0.2642839       -34.54708
1.612                 -0.2700986       -34.72965
1.616                 -0.2760046       -34.91313
1.62                  -0.2819987       -35.09754
1.624                 -0.2880817       -35.28289
1.628                 -0.2942517       -35.46919
1.632                 -0.3005058       -35.65646
1.636                 -0.3068433       -35.84473
1.64                   -0.313262       -36.03399
1.644                 -0.3197623       -36.22428
1.648                 -0.3263402       -36.41563
1.652                 -0.3329971       -36.60805
1.656                   -0.33973       -36.80156
1.66                  -0.3465369        -36.9962
1.664                 -0.3534193       -37.19197
1.668                 -0.3603742       -37.38894
1.672                 -0.3674011       -37.58711
1.676                 -0.3744999       -37.78652
1.68                  -0.3816675        -37.9872
1.684                 -0.3889068       -38.18919
1.688                 -0.3962146       -38.39253
1.692                  -0.403593       -38.59724
1.696                 -0.4110391       -38.80336
1.7                   -0.4185559       -39.01096
1.704                 -0.4261414       -39.22003
1.708                 -0.4337976       -39.43066
1.712                 -0.4415248       -39.64287
1.716                 -0.4493229       -39.85671
1.72                  -0.4571936       -40.07221
1.724                 -0.4651406       -40.28945
1.728                 -0.4731611       -40.50844
1.732                 -0.4812606       -40.72926
1.736                   -0.48944       -40.95194
1.74                  -0.4976995       -41.17654
1.744                 -0.5060445       -41.40312
1.748                 -0.5144778       -41.63171
1.752                 -0.5230014       -41.86237
1.756                 -0.5316199       -42.09517
1.76                  -0.5403351       -42.33015
1.764                 -0.5491528       -42.56736
1.768                 -0.5580769       -42.80687
1.772                 -0.5671116       -43.04873
1.776                 -0.5762631         -43.293
1.78                  -0.5855347       -43.53972
1.784                 -0.5949347       -43.78897
1.788                 -0.6044674       -44.04079
1.792                 -0.6141377       -44.29525
1.796                 -0.6239558        -44.5524
1.8                   -0.6339256        -44.8123
1.804                 -0.6440555       -45.07501
1.808                 -0.6543526       -45.34057
1.812                 -0.6648243       -45.60907
1.816                  -0.675481       -45.88054
1.82                  -0.6863306       -46.15504
1.824                 -0.6973798       -46.43263
1.828                 -0.7086405       -46.71338
1.832                 -0.7201205       -46.99732
1.836                 -0.7318299       -47.28452
1.84                  -0.7437805       -47.57503
1.844                 -0.7559812       -47.86892
1.848                 -0.7684425       -48.16621
1.852                 -0.7811761       -48.46698
1.856                 -0.7941941       -48.77127
1.86                  -0.8075072       -49.07914
1.864                 -0.8211279       -49.39062
1.868                 -0.8350683       -49.70578
1.872                 -0.8493415       -50.02467
1.876                 -0.8639598       -50.34731
1.88                  -0.8789376       -50.67378
1.884                 -0.8942862       -51.00411
1.888                 -0.9100205       -51.33833
1.892                 -0.9261553       -51.67651
1.896                 -0.9427046       -52.01869
1.9                   -0.9596802       -52.36488
1.904                 -0.9771007       -52.71516
1.908                 -0.9949789       -53.06954
1.912                  -1.013331       -53.42808
1.916                  -1.032171       -53.79081
1.92                   -1.051517       -54.15775
1.924                  -1.071382       -54.52896
1.928                  -1.091784       -54.90445
1.932                  -1.112738       -55.28428
1.936                  -1.134263       -55.66847
1.94                   -1.156375       -56.05704
1.944                  -1.179089       -56.45004
1.948                  -1.202424       -56.84748
1.952                  -1.226398       -57.24941
1.956                  -1.251026       -57.65583
1.96                   -1.276329       -58.06679
1.964                  -1.302323        -58.4823
1.968                  -1.329027       -58.90241
1.972                  -1.356458       -59.32712
1.976                  -1.384637       -59.75646
1.98                   -1.413582       -60.19046
1.984                  -1.443311       -60.62914
1.988                  -1.473844       -61.07251
1.992                  -1.505201       -61.52061
1.996                  -1.537399       -61.97346
2                      -1.570462       -62.43105
2.004                  -1.604405       -62.89344
2.008                  -1.639253       -63.36064
2.012                  -1.675024       -63.83266
2.016                   -1.71174       -64.30954
2.02                   -1.749419       -64.79129
2.024                  -1.788085        -65.2779
2.028                   -1.82776       -65.76945
2.032                  -1.868462       -66.26592
2.036                  -1.910216       -66.76735
2.04                   -1.953041       -67.27374
2.044                  -1.996964       -67.78513
2.048                  -2.042005       -68.30155
2.052                  -2.088186       -68.82302
2.056                  -2.135533       -69.34956
2.06                   -2.184067       -69.88119
2.064                  -2.233812       -70.41795
2.068                  -2.284795       -70.95986
2.072                  -2.337037       -71.50695
2.076                  -2.390567       -72.05927
2.08                   -2.445406       -72.61683
2.084                  -2.501584       -73.17969
2.088                  -2.559124       -73.74786
2.092                  -2.618054       -74.32141
2.096                    -2.6784       -74.90035
2.1                    -2.740191       -75.48476
2.104                  -2.803454       -76.07466
2.108                  -2.868217       -76.67011
2.112                  -2.934512       -77.27117
2.116                  -3.002367       -77.87788
2.12                   -3.071811       -78.49033
2.124                  -3.142877       -79.10857
2.128                  -3.215594       -79.73266
2.132                  -3.289998        -80.3627
2.136                  -3.366119       -80.99876
2.14                   -3.443993        -81.6409
2.144                  -3.523651       -82.28924
2.148                  -3.605134       -82.94387
2.152                  -3.688473        -83.6049
2.156                  -3.773708       -84.27243
2.16                   -3.860876       -84.94657
2.164                  -3.950016       -85.62747
2.168                  -4.041169       -86.31524
2.172                  -4.134376       -87.01003
2.176                  -4.229679         -87.712
2.18                   -4.327121       -88.42132
2.184                  -4.426747       -89.13813
2.188                  -4.528605       -89.86268
2.192                  -4.632739       -90.59509
2.196                  -4.739201       -91.33565
2.2                    -4.848038       -92.08454
2.204                  -4.959305       -92.84201
2.208                  -5.073054       -93.60834
2.212                  -5.189339       -94.38379
2.216                  -5.308217       -95.16866
2.22                   -5.429749       -95.96328
2.224                   -5.55399         -96.768
2.228                  -5.681007       -97.58315
2.232                  -5.810864       -98.40918
2.236                  -5.943624       -99.24646
2.24                   -6.079357       -100.0955
2.244                  -6.218133       -100.9567
2.248                  -6.360025       -101.8307
2.252                  -6.505108       -102.7179
2.256                  -6.653458       -103.6191
2.26                   -6.805156       -104.5349
2.264                  -6.960281       -105.4658
2.268                  -7.118918       -106.4129
2.272                  -7.281152       -107.3767
2.276                  -7.447073       -108.3583
2.28                    -7.61677       -109.3585
2.284                  -7.790334       -110.3784
2.288                   -7.96786       -111.4191
2.292                  -8.149439       -112.4819
2.296                   -8.33517       -113.5679
2.3                    -8.525148       -114.6787
2.304                  -8.719468       -115.8158
2.308                  -8.918226       -116.9807
2.312                  -9.121513       -118.1754
2.316                  -9.329418       -119.4019
2.32                   -9.542029       -120.6621
2.324                  -9.759423       -121.9585
2.328                  -9.981667       -123.2936
2.332                  -10.20882       -124.6701
2.336                  -10.44094       -126.0911
2.34                   -10.67803       -127.5597
2.344                  -10.92011       -129.0796
2.348                  -11.16715       -130.6546
2.352                  -11.41908       -132.2888
2.356                  -11.67581       -133.9867
2.36                   -11.93718       -135.7533
2.364                  -12.20296       -137.5938
2.368                  -12.47286       -139.5139
2.372                  -12.74649       -141.5195
2.376                  -13.02333       -143.6171
2.38                   -13.30277       -145.8133
2.384                  -13.58402       -148.1152
2.388                   -13.8661       -150.5299
2.392                  -14.14785       -153.0645
2.396                  -14.42788        -155.726
2.4                    -14.70454        -158.521
2.404                  -14.97591       -161.4553