! TOUCHSTONE file generated by CST MICROWAVE STUDIO
! Date and time: Fri May  6 09:22:55 2022
! Project name: ant1_ceramic_sweep_10porcent.cst
! Parameters = {e=0.035; h=1.6; i=0.8; l1=0.5; l2=17; ls=80; wl=1.7; ws=29.7}
! Header version: 2018
! Port assignment regex: !\s*Touchstone port\s*([0-9]+)\s*=\s*(CST MWS port|CST DS port)\s*([0-9]+|Zmin|Zmax)\s*\(\"(.*)\"\)(\s*mode\s*([0-9]+))?.*
! Touchstone port assignment:
! Touchstone port 1 = CST MWS port 1 ("")
# GHz S DB R 50
0                   -0.000113899              -0
0.004              -0.0001261955     -0.06016281
0.008              -0.0001661942      -0.1203177
0.012              -0.0002292437      -0.1804566
0.016              -0.0003200173      -0.2405716
0.02               -0.0004349098       -0.300655
0.024              -0.0005754989      -0.3606989
0.028              -0.0007397429      -0.4206957
0.032              -0.0009292297      -0.4806378
0.036               -0.001141928       -0.540518
0.04                -0.001378398      -0.6003289
0.044                -0.00163662      -0.6600635
0.048               -0.001917679      -0.7197151
0.052               -0.002219046      -0.7792769
0.056               -0.002540779      -0.8387429
0.06                -0.002882943      -0.8981065
0.064               -0.003244051      -0.9573624
0.068               -0.003623138       -1.016505
0.072               -0.004018722       -1.075529
0.076               -0.004428805       -1.134429
0.08                -0.004855019       -1.193202
0.084               -0.005296404       -1.251842
0.088               -0.005748379       -1.310346
0.092               -0.006212056       -1.368711
0.096               -0.006687001       -1.426933
0.1                   -0.0071707        -1.48501
0.104               -0.007661678       -1.542941
0.108                -0.00815898       -1.600721
0.112               -0.008662163       -1.658351
0.116               -0.009169228        -1.71583
0.12                -0.009679734       -1.773156
0.124                -0.01019116       -1.830331
0.128                -0.01070254       -1.887353
0.132                -0.01121289       -1.944225
0.136                -0.01172073       -2.000946
0.14                 -0.01222509        -2.05752
0.144                -0.01272237       -2.113946
0.148                -0.01321471        -2.17023
0.152                -0.01369905       -2.226373
0.156                -0.01417438       -2.282378
0.16                 -0.01464023       -2.338251
0.164                -0.01509454       -2.393994
0.168                -0.01553579       -2.449612
0.172                -0.01596296        -2.50511
0.176                -0.01637554       -2.560494
0.18                  -0.0167725        -2.61577
0.184                -0.01715333       -2.670944
0.188                 -0.0175149       -2.726021
0.192                -0.01785772       -2.781009
0.196                -0.01818074       -2.835915
0.2                  -0.01848392       -2.890747
0.204                -0.01876517       -2.945511
0.208                -0.01902391       -3.000217
0.212                 -0.0192596       -3.054872
0.216                -0.01947268       -3.109484
0.22                 -0.01966156       -3.164063
0.224                -0.01982513       -3.218616
0.228                -0.01996382       -3.273154
0.232                -0.02007756       -3.327685
0.236                -0.02016576       -3.382219
0.24                 -0.02022727       -3.436764
0.244                -0.02026305       -3.491331
0.248                -0.02027194       -3.545929
0.252                 -0.0202554       -3.600567
0.256                 -0.0202128       -3.655255
0.26                 -0.02014298       -3.710002
0.264                -0.02004737       -3.764818
0.268                -0.01992636       -3.819713
0.272                -0.01977982       -3.874696
0.276                -0.01960709       -3.929775
0.28                 -0.01941114       -3.984961
0.284                -0.01918924       -4.040263
0.288                -0.01894487       -4.095688
0.292                -0.01867735       -4.151246
0.296                -0.01838706       -4.206945
0.3                  -0.01807642       -4.262795
0.304                -0.01774322       -4.318801
0.308                -0.01738989       -4.374972
0.312                -0.01701937       -4.431316
0.316                 -0.0166289        -4.48784
0.32                 -0.01622249       -4.544551
0.324                -0.01579893       -4.601454
0.328                -0.01536013       -4.658557
0.332                -0.01490904       -4.715865
0.336                -0.01444344       -4.773382
0.34                  -0.0139673       -4.831116
0.344                  -0.013481       -4.889069
0.348                -0.01298593       -4.947247
0.352                -0.01248196       -5.005652
0.356                -0.01197255       -5.064289
0.36                 -0.01145654       -5.123158
0.364                -0.01093843       -5.182266
0.368                 -0.0104181       -5.241613
0.372               -0.009895424       -5.301199
0.376               -0.009373903       -5.361027
0.38                -0.008853927       -5.421097
0.384                -0.00833644       -5.481409
0.388               -0.007825458       -5.541964
0.392               -0.007318816        -5.60276
0.396               -0.006819528       -5.663796
0.4                 -0.006329588       -5.725071
0.404               -0.005848915       -5.786583
0.408               -0.005378978        -5.84833
0.412               -0.004921817       -5.910307
0.416               -0.004478895       -5.972514
0.42                -0.004050191       -6.034945
0.424               -0.003637732       -6.097596
0.428               -0.003243039       -6.160465
0.432               -0.002866121       -6.223543
0.436               -0.002507452       -6.286828
0.44                -0.002170151       -6.350314
0.444               -0.001855263       -6.413996
0.448                -0.00156229       -6.477865
0.452               -0.001290213       -6.541917
0.456               -0.001044266       -6.606145
0.46               -0.0008213768       -6.670541
0.464              -0.0006252222         -6.7351
0.468              -0.0004548337       -6.799812
0.472               -0.000309763       -6.864671
0.476              -0.0001926898       -6.929668
0.48               -0.0001031687       -6.994797
0.484              -4.079175e-05       -7.060048
0.488              -6.184736e-06       -7.125413
0.492              -4.851901e-07       -7.190886
0.496              -2.327904e-05       -7.256457
0.5                -7.526751e-05       -7.322116
0.504              -0.0001544514       -7.387858
0.508              -0.0002630605       -7.453672
0.512              -0.0003997044       -7.519551
0.516              -0.0005650184       -7.585486
0.52               -0.0007575904        -7.65147
0.524              -0.0009776059       -7.717494
0.528               -0.001224179       -7.783549
0.532               -0.001500585       -7.849629
0.536               -0.001800751       -7.915724
0.54                -0.002125893       -7.981828
0.544               -0.002476158       -8.047934
0.548               -0.002852739       -8.114036
0.552               -0.003250131       -8.180123
0.556               -0.003672046       -8.246195
0.56                -0.004114567        -8.31224
0.564               -0.004577293       -8.378254
0.568               -0.005060398       -8.444232
0.572               -0.005561421       -8.510167
0.576               -0.006079443       -8.576055
0.58                -0.006614627       -8.641893
0.584               -0.007166003       -8.707677
0.588               -0.007728048       -8.773399
0.592               -0.008305507        -8.83906
0.596               -0.008892805       -8.904654
0.6                 -0.009490474       -8.970183
0.604                -0.01009603       -9.035642
0.608                -0.01070958       -9.101029
0.612                -0.01132801       -9.166344
0.616                -0.01195033       -9.231588
0.62                  -0.0125766       -9.296759
0.624                -0.01320366       -9.361858
0.628                -0.01383108       -9.426885
0.632                -0.01445618       -9.491843
0.636                -0.01507841       -9.556734
0.64                 -0.01569671        -9.62156
0.644                -0.01630843       -9.686323
0.648                -0.01691345       -9.751029
0.652                -0.01750862       -9.815678
0.656                -0.01809431       -9.880278
0.66                 -0.01866828       -9.944835
0.664                -0.01922996       -10.00935
0.668                -0.01977701       -10.07383
0.672                -0.02030879       -10.13829
0.676                -0.02082303       -10.20272
0.68                 -0.02132005       -10.26714
0.684                -0.02179848       -10.33155
0.688                -0.02225613       -10.39597
0.692                -0.02269322        -10.4604
0.696                -0.02310733       -10.52484
0.7                  -0.02349929       -10.58932
0.704                -0.02386617       -10.65383
0.708                -0.02420912       -10.71839
0.712                -0.02452689       -10.78301
0.716                -0.02481858        -10.8477
0.72                 -0.02508215       -10.91247
0.724                -0.02531887       -10.97733
0.728                -0.02552837       -11.04228
0.732                -0.02571025       -11.10735
0.736                -0.02586195       -11.17255
0.74                  -0.0259857       -11.23788
0.744                -0.02608203       -11.30335
0.748                -0.02614751       -11.36899
0.752                -0.02618464        -11.4348
0.756                 -0.0261931       -11.50078
0.76                 -0.02617339       -11.56696
0.764                -0.02612455       -11.63335
0.768                -0.02604763       -11.69996
0.772                -0.02594319       -11.76679
0.776                -0.02581076       -11.83387
0.78                 -0.02565251       -11.90119
0.784                -0.02546781       -11.96879
0.788                 -0.0252589       -12.03665
0.792                 -0.0250242        -12.1048
0.796                -0.02476737       -12.17325
0.8                  -0.02448585         -12.242
0.804                -0.02418332       -12.31107
0.808                -0.02386186       -12.38047
0.812                -0.02351851        -12.4502
0.816                -0.02315892       -12.52028
0.82                 -0.02278062       -12.59071
0.824                -0.02238783        -12.6615
0.828                -0.02198004       -12.73267
0.832                -0.02155953       -12.80421
0.836                -0.02112733       -12.87613
0.84                 -0.02068516       -12.94845
0.844                -0.02023465       -13.02116
0.848                -0.01977802       -13.09428
0.852                -0.01931553       -13.16781
0.856                -0.01884978       -13.24175
0.86                 -0.01838104        -13.3161
0.864                -0.01791255       -13.39088
0.868                -0.01744618       -13.46608
0.872                -0.01698259       -13.54171
0.876                -0.01652308       -13.61777
0.88                 -0.01607156       -13.69426
0.884                -0.01562782       -13.77118
0.888                -0.01519418       -13.84853
0.892                -0.01477252       -13.92631
0.896                -0.01436375       -14.00453
0.9                  -0.01397081       -14.08317
0.904                -0.01359403       -14.16224
0.908                 -0.0132365       -14.24174
0.912                -0.01289809       -14.32167
0.916                -0.01258224       -14.40201
0.92                 -0.01228964       -14.48277
0.924                -0.01202114       -14.56395
0.928                 -0.0117789       -14.64553
0.932                -0.01156447       -14.72751
0.936                -0.01137884       -14.80989
0.94                 -0.01122308       -14.89267
0.944                -0.01109891       -14.97583
0.948                -0.01100753       -15.05937
0.952                -0.01095055       -15.14328
0.956                -0.01092747       -15.22755
0.96                 -0.01094024       -15.31218
0.964                -0.01098975       -15.39716
0.968                -0.01107647       -15.48248
0.972                -0.01120258       -15.56814
0.976                -0.01136671       -15.65411
0.98                 -0.01157062        -15.7404
0.984                -0.01181418         -15.827
0.988                -0.01209846        -15.9139
0.992                 -0.0124229       -16.00108
0.996                -0.01278875       -16.08853
1                    -0.01319624       -16.17626
1.004                -0.01364464       -16.26425
1.008                -0.01413479       -16.35249
1.012                 -0.0146654       -16.44097
1.016                -0.01523697       -16.52967
1.02                 -0.01585056       -16.61861
1.024                -0.01650199       -16.70772
1.028                -0.01719492       -16.79709
1.032                -0.01792647       -16.88662
1.036                 -0.0186969       -16.97637
1.04                 -0.01950645       -17.06628
1.044                -0.02035223       -17.15639
1.048                -0.02123517       -17.24663
1.052                 -0.0221514         -17.337
1.056                -0.02310339       -17.42755
1.06                  -0.0240884       -17.51825
1.064                -0.02510523       -17.60906
1.068                -0.02615392       -17.70004
1.072                -0.02723127        -17.7911
1.076                -0.02833678       -17.88233
1.08                  -0.0294687       -17.97363
1.084                -0.03062607        -18.0651
1.088                -0.03180731       -18.15663
1.092                -0.03300966       -18.24829
1.096                -0.03423374       -18.34003
1.1                  -0.03547526       -18.43188
1.104                -0.03673447       -18.52387
1.108                -0.03800876       -18.61594
1.112                -0.03929645        -18.7081
1.116                -0.04059598       -18.80036
1.12                 -0.04190545       -18.89276
1.124                -0.04322379       -18.98524
1.128                -0.04454766       -19.07784
1.132                -0.04587586       -19.17056
1.136                -0.04720649        -19.2634
1.14                 -0.04853741       -19.35637
1.144                -0.04986809       -19.44947
1.148                -0.05119556       -19.54271
1.152                -0.05251755       -19.63609
1.156                -0.05383419       -19.72963
1.16                 -0.05514172       -19.82333
1.164                -0.05643946       -19.91721
1.168                -0.05772612       -20.01127
1.172                -0.05899969       -20.10553
1.176                 -0.0602594       -20.19999
1.18                 -0.06150158       -20.29467
1.184                -0.06272677       -20.38958
1.188                -0.06393351       -20.48474
1.192                -0.06512001       -20.58015
1.196                -0.06628427       -20.67584
1.2                  -0.06742751       -20.77181
1.204                -0.06854507       -20.86809
1.208                -0.06963996       -20.96469
1.212                -0.07070896       -21.06162
1.216                -0.07175223       -21.15891
1.22                 -0.07276807       -21.25657
1.224                -0.07375689       -21.35461
1.228                -0.07471793       -21.45306
1.232                -0.07565067       -21.55194
1.236                 -0.0765547       -21.65127
1.24                 -0.07743007       -21.75105
1.244                -0.07827803       -21.85132
1.248                -0.07909618       -21.95209
1.252                  -0.079887       -22.05338
1.256                -0.08064928       -22.15521
1.26                  -0.0813846        -22.2576
1.264                -0.08209217       -22.36057
1.268                 -0.0827745       -22.46415
1.272                -0.08343067       -22.56834
1.276                -0.08406187       -22.67317
1.28                 -0.08466993       -22.77866
1.284                 -0.0852562       -22.88483
1.288                -0.08582072        -22.9917
1.292                -0.08636546       -23.09928
1.296                -0.08689226        -23.2076
1.3                  -0.08740217       -23.31668
1.304                 -0.0878965       -23.42653
1.308                -0.08837867       -23.53716
1.312                -0.08884936       -23.64861
1.316                -0.08931012       -23.76088
1.32                 -0.08976477       -23.87399
1.324                -0.09021443       -23.98796
1.328                -0.09066065        -24.1028
1.332                -0.09110764       -24.21853
1.336                -0.09155572       -24.33516
1.34                 -0.09200874        -24.4527
1.344                -0.09246975       -24.57118
1.348                -0.09293909        -24.6906
1.352                -0.09342276       -24.81097
1.356                -0.09392162       -24.93231
1.36                 -0.09443809       -25.05463
1.364                -0.09497628       -25.17793
1.368                -0.09553668       -25.30223
1.372                -0.09612606       -25.42753
1.376                -0.09674532       -25.55385
1.38                 -0.09739604       -25.68118
1.384                -0.09808426       -25.80954
1.388                -0.09880893       -25.93893
1.392                -0.09957759       -26.06936
1.396                 -0.1003908       -26.20083
1.4                   -0.1012505       -26.33334
1.404                 -0.1021622       -26.46691
1.408                 -0.1031273       -26.60152
1.412                 -0.1041486       -26.73718
1.416                  -0.105231       -26.87389
1.42                   -0.106375       -27.01166
1.424                 -0.1075841       -27.15047
1.428                 -0.1088621       -27.29034
1.432                 -0.1102108       -27.43126
1.436                 -0.1116324       -27.57322
1.44                    -0.11313       -27.71623
1.444                 -0.1147069       -27.86027
1.448                 -0.1163648       -28.00535
1.452                 -0.1181052       -28.15146
1.456                 -0.1199331        -28.2986
1.46                  -0.1218476       -28.44675
1.464                 -0.1238527       -28.59592
1.468                 -0.1259499        -28.7461
1.472                 -0.1281401       -28.89728
1.476                 -0.1304272       -29.04946
1.48                  -0.1328114       -29.20262
1.484                 -0.1352951       -29.35676
1.488                 -0.1378792       -29.51188
1.492                 -0.1405648       -29.66796
1.496                 -0.1433538         -29.825
1.5                   -0.1462472       -29.98299
1.504                 -0.1492464       -30.14192
1.508                 -0.1523524       -30.30179
1.512                 -0.1555645       -30.46258
1.516                 -0.1588851       -30.62429
1.52                   -0.162314       -30.78692
1.524                 -0.1658509       -30.95045
1.528                 -0.1694973       -31.11488
1.532                 -0.1732531        -31.2802
1.536                  -0.177119       -31.44641
1.54                  -0.1810929        -31.6135
1.544                  -0.185177       -31.78146
1.548                 -0.1893694       -31.95029
1.552                 -0.1936697          -32.12
1.556                 -0.1980786       -32.29056
1.56                  -0.2025947       -32.46199
1.564                 -0.2072181       -32.63427
1.568                 -0.2119465       -32.80741
1.572                 -0.2167809       -32.98141
1.576                  -0.221719       -33.15627
1.58                  -0.2267595       -33.33199
1.584                 -0.2319021       -33.50856
1.588                 -0.2371468       -33.68601
1.592                 -0.2424885       -33.86431
1.596                 -0.2479303        -34.0435
1.6                   -0.2534672       -34.22356
1.604                 -0.2591008       -34.40451
1.608                 -0.2648268       -34.58635
1.612                 -0.2706474       -34.76911
1.616                 -0.2765568       -34.95278
1.62                  -0.2825565       -35.13738
1.624                 -0.2886424       -35.32292
1.628                 -0.2948162       -35.50943
1.632                 -0.3010737        -35.6969
1.636                 -0.3074154       -35.88537
1.64                   -0.313838       -36.07485
1.644                 -0.3203413       -36.26536
1.648                 -0.3269247       -36.45693
1.652                 -0.3335842       -36.64957
1.656                 -0.3403191       -36.84331
1.66                  -0.3471306       -37.03818
1.664                  -0.354017       -37.23421
1.668                 -0.3609731       -37.43141
1.672                 -0.3680042       -37.62984
1.676                 -0.3751051        -37.8295
1.68                  -0.3822771       -38.03044
1.684                 -0.3895196        -38.2327
1.688                 -0.3968303        -38.4363
1.692                  -0.404212       -38.64129
1.696                 -0.4116636        -38.8477
1.7                   -0.4191838       -39.05558
1.704                 -0.4267744       -39.26496
1.708                 -0.4344355       -39.47589
1.712                 -0.4421673        -39.6884
1.716                 -0.4499708       -39.90255
1.72                  -0.4578477       -40.11838
1.724                 -0.4658003       -40.33595
1.728                  -0.473828       -40.55528
1.732                 -0.4819341       -40.77643
1.736                 -0.4901216       -40.99947
1.74                  -0.4983894       -41.22442
1.744                 -0.5067429       -41.45135
1.748                 -0.5151861       -41.68031
1.752                 -0.5237195       -41.91135
1.756                 -0.5323482       -42.14453
1.76                  -0.5410746       -42.37989
1.764                 -0.5499052        -42.6175
1.768                 -0.5588424       -42.85741
1.772                 -0.5678913       -43.09967
1.776                 -0.5770572       -43.34435
1.78                  -0.5863451        -43.5915
1.784                 -0.5957611       -43.84117
1.788                 -0.6053113       -44.09343
1.792                 -0.6150007       -44.34832
1.796                 -0.6248383       -44.60592
1.8                   -0.6348283       -44.86627
1.804                 -0.6449808       -45.12943
1.808                 -0.6553011       -45.39547
1.812                 -0.6657982       -45.66443
1.816                 -0.6764811       -45.93637
1.82                  -0.6873555       -46.21135
1.824                  -0.698434       -46.48943
1.828                  -0.709724       -46.77067
1.832                  -0.721235       -47.05511
1.836                 -0.7329772       -47.34281
1.84                  -0.7449605       -47.63383
1.844                 -0.7571968       -47.92822
1.848                 -0.7696944       -48.22603
1.852                  -0.782467       -48.52733
1.856                 -0.7955244       -48.83213
1.86                  -0.8088796       -49.14053
1.864                  -0.822542       -49.45254
1.868                 -0.8365263       -49.76824
1.872                 -0.8508475       -50.08767
1.876                 -0.8655135       -50.41086
1.88                  -0.8805403       -50.73787
1.884                 -0.8959405       -51.06874
1.888                  -0.911727       -51.40353
1.892                 -0.9279169       -51.74225
1.896                 -0.9445215       -52.08498
1.9                   -0.9615571       -52.43175
1.904                 -0.9790372       -52.78259
1.908                 -0.9969759       -53.13753
1.912                  -1.015391       -53.49663
1.916                  -1.034297       -53.85993
1.92                   -1.053709       -54.22745
1.924                  -1.073644       -54.59922
1.928                  -1.094117        -54.9753
1.932                  -1.115145       -55.35569
1.936                  -1.136744       -55.74044
1.94                   -1.158932        -56.1296
1.944                  -1.181725       -56.52317
1.948                  -1.205141       -56.92119
1.952                  -1.229196       -57.32368
1.956                   -1.25391       -57.73069
1.96                   -1.279298       -58.14222
1.964                   -1.30538       -58.55832
1.968                  -1.332174       -58.97899
1.972                  -1.359698       -59.40429
1.976                   -1.38797        -59.8342
1.98                   -1.417012       -60.26878
1.984                  -1.446839       -60.70803
1.988                  -1.477473       -61.15197
1.992                   -1.50893       -61.60065
1.996                  -1.541233       -62.05405
2                      -1.574401       -62.51223
2.004                  -1.608454        -62.9752
2.008                  -1.643411       -63.44297
2.012                  -1.679294       -63.91555
2.016                  -1.716124       -64.39301
2.02                    -1.75392       -64.87532
2.024                  -1.792705       -65.36252
2.028                  -1.832499       -65.85462
2.032                  -1.873323       -66.35165
2.036                  -1.915203       -66.85364
2.04                   -1.958155       -67.36059
2.044                  -2.002207       -67.87255
2.048                   -2.04738       -68.38954
2.052                  -2.093694       -68.91156
2.056                  -2.141176       -69.43866
2.06                   -2.189847       -69.97085
2.064                  -2.239734       -70.50816
2.068                  -2.290859       -71.05063
2.072                  -2.343246       -71.59829
2.076                  -2.396921       -72.15116
2.08                    -2.45191       -72.70929
2.084                   -2.50824       -73.27269
2.088                  -2.565933       -73.84143
2.092                  -2.625019       -74.41552
2.096                  -2.685524       -74.99504
2.1                    -2.747476       -75.57999
2.104                  -2.810902       -76.17044
2.108                  -2.875833       -76.76647
2.112                  -2.942296       -77.36808
2.116                  -3.010322       -77.97536
2.12                   -3.079941       -78.58838
2.124                  -3.151184       -79.20719
2.128                  -3.224082       -79.83186
2.132                  -3.298667       -80.46246
2.136                  -3.374973       -81.09911
2.14                   -3.453034       -81.74183
2.144                  -3.532886       -82.39076
2.148                  -3.614561       -83.04598
2.152                  -3.698098       -83.70761
2.156                  -3.783533       -84.37574
2.16                   -3.870905       -85.05051
2.164                  -3.960253       -85.73201
2.168                  -4.051616       -86.42041
2.172                  -4.145036       -87.11585
2.176                  -4.240558       -87.81846
2.18                    -4.33822       -88.52844
2.184                  -4.438072       -89.24592
2.188                  -4.540159       -89.97114
2.192                  -4.644525       -90.70427
2.196                  -4.751224       -91.44553
2.2                    -4.860303       -92.19513
2.204                  -4.971815       -92.95337
2.208                  -5.085813       -93.72045
2.212                  -5.202353       -94.49669
2.216                  -5.321492       -95.28235
2.22                   -5.443286       -96.07781
2.224                  -5.567797       -96.88337
2.228                  -5.695088       -97.69942
2.232                  -5.825223       -98.52635
2.236                  -5.958268       -99.36458
2.24                   -6.094292       -100.2146
2.244                  -6.233365       -101.0768
2.248                  -6.375559       -101.9519
2.252                  -6.520949       -102.8402
2.256                  -6.669614       -103.7426
2.26                   -6.821633       -104.6595
2.264                  -6.977086       -105.5917
2.268                  -7.136057       -106.5401
2.272                  -7.298633       -107.5053
2.276                  -7.464901       -108.4883
2.28                   -7.634954       -109.4901
2.284                  -7.808882       -110.5116
2.288                  -7.986777        -111.554
2.292                  -8.168735       -112.6186
2.296                  -8.354851       -113.7065
2.3                    -8.545223       -114.8193
2.304                  -8.739943       -115.9586
2.308                  -8.939109       -117.1258
2.312                  -9.142812        -118.323
2.316                  -9.351137        -119.552
2.32                   -9.564177        -120.815
2.324                  -9.782003       -122.1144
2.328                  -10.00469       -123.4526
2.332                  -10.23229       -124.8326
2.336                  -10.46484       -126.2572
2.34                   -10.70238       -127.7298
2.344                   -10.9449       -129.2539
2.348                  -11.19238       -130.8334
2.352                  -11.44475       -132.4725
2.356                   -11.7019       -134.1757
2.36                   -11.96367       -135.9479
2.364                  -12.22984       -137.7945
2.368                  -12.50009       -139.7211
2.372                  -12.77404       -141.7338
2.376                  -13.05115        -143.839
2.38                    -13.3308       -146.0434
2.384                  -13.61219       -148.3539
2.388                  -13.89432       -150.7778
2.392                  -14.17603       -153.3222
2.396                  -14.45588       -155.9941
2.4                    -14.73222       -158.7999
2.404                   -15.0031       -161.7454