! TOUCHSTONE file generated by CST MICROWAVE STUDIO
! Date and time: Fri May  6 09:22:55 2022
! Project name: ant1_ceramic_sweep_10porcent.cst
! Parameters = {e=0.035; h=1.6; i=0.8; l1=0.5; l2=17; ls=80; wl=1.7; ws=33}
! Header version: 2018
! Port assignment regex: !\s*Touchstone port\s*([0-9]+)\s*=\s*(CST MWS port|CST DS port)\s*([0-9]+|Zmin|Zmax)\s*\(\"(.*)\"\)(\s*mode\s*([0-9]+))?.*
! Touchstone port assignment:
! Touchstone port 1 = CST MWS port 1 ("")
# GHz S DB R 50
0                  -0.0001325372              -0
0.004              -0.0001463723     -0.06025429
0.008              -0.0001858098      -0.1205004
0.012              -0.0002518934      -0.1807302
0.016              -0.0003441194      -0.2409356
0.02                -0.000461472      -0.3011085
0.024              -0.0006055293      -0.3612409
0.028              -0.0007737329      -0.4213251
0.032              -0.0009676715      -0.4813533
0.036               -0.001184797      -0.5413179
0.04                -0.001427225      -0.6012116
0.044               -0.001690346      -0.6610271
0.048               -0.001977838      -0.7207574
0.052               -0.002287689       -0.780396
0.056               -0.002615818       -0.839936
0.06                -0.002966434      -0.8993714
0.064               -0.003335461      -0.9586966
0.068               -0.003722973       -1.017905
0.072               -0.004128526       -1.076992
0.076               -0.004549088       -1.135953
0.08                -0.004985256       -1.194782
0.084                -0.00543452       -1.253476
0.088               -0.005898514        -1.31203
0.092               -0.006372658       -1.370442
0.096               -0.006858589       -1.428707
0.1                 -0.007353279       -1.486823
0.104               -0.007855772       -1.544789
0.108               -0.008365114       -1.602602
0.112               -0.008880868        -1.66026
0.116               -0.009398961       -1.717762
0.12                -0.009921028       -1.775109
0.124                -0.01044455       -1.832299
0.128                -0.01096752       -1.889334
0.132                -0.01148949       -1.946213
0.136                -0.01200845       -2.002939
0.14                 -0.01252498       -2.059513
0.144                -0.01303499       -2.115936
0.148                -0.01353853       -2.172212
0.152                -0.01403512       -2.228344
0.156                -0.01452222       -2.284335
0.16                  -0.0149983       -2.340188
0.164                -0.01546236       -2.395909
0.168                -0.01591496       -2.451501
0.172                -0.01635246       -2.506971
0.176                -0.01677489       -2.562323
0.18                 -0.01718069       -2.617563
0.184                -0.01756936       -2.672697
0.188                -0.01794036       -2.727733
0.192                -0.01829161       -2.782677
0.196                -0.01862205       -2.837536
0.2                  -0.01893217       -2.892318
0.204                -0.01922038        -2.94703
0.208                -0.01948509       -3.001682
0.212                -0.01972728       -3.056281
0.216                -0.01994432       -3.110835
0.22                 -0.02013821       -3.165354
0.224                -0.02030578       -3.219847
0.228                -0.02044799       -3.274323
0.232                -0.02056475       -3.328791
0.236                -0.02065444        -3.38326
0.24                  -0.0207185       -3.437741
0.244                -0.02075477       -3.492243
0.248                -0.02076366       -3.546775
0.252                -0.02074713       -3.601347
0.256                -0.02070351        -3.65597
0.26                 -0.02063269       -3.710652
0.264                -0.02053506       -3.765404
0.268                -0.02041099       -3.820236
0.272                -0.02026087       -3.875155
0.276                 -0.0200851       -3.930173
0.28                 -0.01988402         -3.9853
0.284                -0.01965855       -4.040543
0.288                -0.01940854       -4.095911
0.292                -0.01913381       -4.151414
0.296                -0.01883785       -4.207061
0.3                  -0.01851843       -4.262859
0.304                -0.01817902       -4.318818
0.308                -0.01781789       -4.374944
0.312                -0.01743748       -4.431246
0.316                -0.01703866        -4.48773
0.32                 -0.01662179       -4.544404
0.324                -0.01618879       -4.601274
0.328                -0.01574101       -4.658348
0.332                -0.01527781       -4.715629
0.336                -0.01480213       -4.773124
0.34                 -0.01431484       -4.830839
0.344                -0.01381631       -4.888776
0.348                -0.01330897       -4.946942
0.352                -0.01279472       -5.005341
0.356                -0.01227293       -5.063974
0.36                 -0.01174499       -5.122845
0.364                -0.01121438       -5.181958
0.368                -0.01068201       -5.241313
0.372                -0.01014672       -5.300912
0.376               -0.009613549       -5.360758
0.38                -0.009081343       -5.420849
0.384               -0.008551037       -5.481187
0.388               -0.008027683       -5.541772
0.392                -0.00750912       -5.602602
0.396               -0.006997832       -5.663677
0.4                 -0.006495823       -5.724994
0.404               -0.006002999       -5.786552
0.408               -0.005521364       -5.848349
0.412               -0.005053456       -5.910381
0.416               -0.004599208       -5.972645
0.42                -0.004159092       -6.035137
0.424                -0.00373722       -6.097854
0.428               -0.003331488        -6.16079
0.432               -0.002946019       -6.223941
0.436               -0.002579256       -6.287302
0.44                -0.002233785       -6.350866
0.444                -0.00191013       -6.414629
0.448                -0.00160834       -6.478581
0.452               -0.001330461        -6.54272
0.456               -0.001077088       -6.607037
0.46                -0.000849813       -6.671525
0.464              -0.0006471312       -6.736176
0.468              -0.0004717029       -6.800984
0.472              -0.0003220579        -6.86594
0.476               -0.000200883       -6.931035
0.48               -0.0001077087       -6.996263
0.484              -4.369885e-05       -7.061616
0.488              -7.921129e-06       -7.127083
0.492               2.049008e-08       -7.192658
0.496              -2.206065e-05       -7.258331
0.5                -7.378098e-05       -7.324095
0.504               -0.000154747       -7.389941
0.508              -0.0002640918       -7.455858
0.512              -0.0004024786       -7.521839
0.516               -0.000570543       -7.587877
0.52               -0.0007653507       -7.653962
0.524              -0.0009906799       -7.720087
0.528               -0.001242584       -7.786241
0.532               -0.001521739       -7.852418
0.536               -0.001828246       -7.918611
0.54                -0.002159787       -7.984809
0.544               -0.002518487        -8.05101
0.548               -0.002899404       -8.117201
0.552               -0.003305809       -8.183378
0.556               -0.003735281       -8.249533
0.56                -0.004186393       -8.315661
0.564               -0.004659827       -8.381756
0.568               -0.005152133       -8.447811
0.572                -0.00566294       -8.513819
0.576               -0.006192868       -8.579779
0.58                -0.006740014       -8.645684
0.584               -0.007300316       -8.711531
0.588               -0.007876055       -8.777313
0.592                -0.00846465       -8.843031
0.596               -0.009064723       -8.908679
0.6                 -0.009674227       -8.974256
0.604                -0.01029331       -9.039758
0.608                -0.01091889       -9.105185
0.612                -0.01155147       -9.170539
0.616                -0.01218709       -9.235813
0.62                  -0.0128262       -9.301011
0.624                -0.01346622       -9.366134
0.628                -0.01410669        -9.43118
0.632                -0.01474494       -9.496153
0.636                -0.01538099       -9.561054
0.64                 -0.01601163       -9.625886
0.644                -0.01663681       -9.690653
0.648                -0.01725444       -9.755355
0.652                -0.01786228       -9.819999
0.656                -0.01846074       -9.884589
0.66                 -0.01904609        -9.94913
0.664                 -0.0196192       -10.01363
0.668                -0.02017789       -10.07808
0.672                -0.02072083       -10.14251
0.676                -0.02124581       -10.20692
0.68                 -0.02175313        -10.2713
0.684                -0.02224151       -10.33568
0.688                -0.02270815       -10.40006
0.692                -0.02315375       -10.46444
0.696                -0.02357703       -10.52884
0.7                  -0.02397663       -10.59327
0.704                -0.02435124       -10.65773
0.708                -0.02469996       -10.72224
0.712                -0.02502406       -10.78681
0.716                -0.02532003       -10.85144
0.72                 -0.02558905       -10.91615
0.724                -0.02583078       -10.98094
0.728                -0.02604321       -11.04584
0.732                -0.02622694       -11.11085
0.736                -0.02638164       -11.17598
0.74                 -0.02650582       -11.24124
0.744                -0.02660208       -11.30666
0.748                -0.02666794       -11.37223
0.752                -0.02670402       -11.43797
0.756                 -0.0267113       -11.50389
0.76                 -0.02668837       -11.57001
0.764                -0.02663627       -11.63634
0.768                -0.02655507       -11.70288
0.772                 -0.0264473       -11.76966
0.776                -0.02630996       -11.83668
0.78                 -0.02614564       -11.90395
0.784                -0.02595539       -11.97149
0.788                -0.02573823        -12.0393
0.792                -0.02549625        -12.1074
0.796                -0.02522841        -12.1758
0.8                   -0.0249399       -12.24451
0.804                -0.02462775       -12.31354
0.808                -0.02429443        -12.3829
0.812                -0.02394219        -12.4526
0.816                -0.02356949       -12.52265
0.82                 -0.02318002       -12.59305
0.824                -0.02277478       -12.66383
0.828                -0.02235399       -12.73497
0.832                -0.02192068        -12.8065
0.836                -0.02147511       -12.87842
0.84                 -0.02101885       -12.95073
0.844                -0.02055412       -13.02345
0.848                -0.02008197       -13.09657
0.852                -0.01960434       -13.17011
0.856                -0.01912372       -13.24406
0.86                 -0.01864044       -13.31844
0.864                -0.01815623       -13.39325
0.868                -0.01767385       -13.46848
0.872                -0.01719509       -13.54415
0.876                -0.01672127       -13.62025
0.88                 -0.01625311       -13.69678
0.884                -0.01579401       -13.77376
0.888                -0.01534482       -13.85117
0.892                -0.01490738       -13.92902
0.896                -0.01448419        -14.0073
0.9                  -0.01407552       -14.08603
0.904                -0.01368441       -14.16518
0.908                -0.01331172       -14.24477
0.912                -0.01296002       -14.32478
0.916                -0.01263068       -14.40522
0.92                 -0.01232381       -14.48608
0.924                -0.01204238       -14.56736
0.928                 -0.0117874       -14.64906
0.932                -0.01156061       -14.73116
0.936                 -0.0113645       -14.81366
0.94                 -0.01119715       -14.89656
0.944                -0.01106312       -14.97985
0.948                 -0.0109622       -15.06352
0.952                -0.01089539       -15.14756
0.956                 -0.0108635       -15.23198
0.96                 -0.01086919       -15.31675
0.964                -0.01091169       -15.40188
0.968                -0.01099254       -15.48735
0.972                -0.01111221       -15.57315
0.976                -0.01127082       -15.65928
0.98                 -0.01147058       -15.74573
0.984                -0.01171032       -15.83249
0.988                -0.01199235       -15.91954
0.992                -0.01231596       -16.00688
0.996                -0.01268132       -16.09451
1                    -0.01308732        -16.1824
1.004                -0.01353728       -16.27055
1.008                -0.01402827       -16.35895
1.012                -0.01456091       -16.44759
1.016                -0.01513628       -16.53647
1.02                 -0.01575282       -16.62556
1.024                 -0.0164101       -16.71488
1.028                -0.01710807       -16.80439
1.032                -0.01784709       -16.89408
1.036                 -0.0186245       -16.98399
1.04                 -0.01944109       -17.07404
1.044                -0.02029498       -17.16428
1.048                -0.02118704       -17.25466
1.052                -0.02211487       -17.34525
1.056                -0.02307788       -17.43593
1.06                 -0.02407459       -17.52677
1.064                -0.02510327       -17.61775
1.068                -0.02616477       -17.70884
1.072                -0.02725592       -17.80009
1.076                -0.02837462       -17.89143
1.08                 -0.02952106       -17.98284
1.084                -0.03069449       -18.07445
1.088                -0.03189015       -18.16608
1.092                -0.03310892       -18.25785
1.096                -0.03434914       -18.34973
1.1                  -0.03560755       -18.44169
1.104                -0.03688401       -18.53376
1.108                -0.03817544       -18.62592
1.112                -0.03948126        -18.7182
1.116                -0.04079843       -18.81055
1.12                 -0.04212517       -18.90303
1.124                -0.04346086       -18.99562
1.128                -0.04480264       -19.08827
1.132                 -0.0461491       -19.18106
1.136                -0.04749764       -19.27396
1.14                 -0.04884677       -19.36699
1.144                -0.05019493       -19.46015
1.148                -0.05154011       -19.55343
1.152                -0.05288063       -19.64686
1.156                -0.05421333       -19.74044
1.16                 -0.05553846       -19.83418
1.164                -0.05685284       -19.92809
1.168                -0.05815524       -20.02218
1.172                 -0.0594453       -20.11645
1.176                -0.06071954       -20.21093
1.18                 -0.06197717       -20.30562
1.184                -0.06321646       -20.40055
1.188                -0.06443647        -20.4957
1.192                -0.06563596       -20.59112
1.196                -0.06681251        -20.6868
1.2                  -0.06796763       -20.78278
1.204                -0.06909774       -20.87905
1.208                -0.07020159       -20.97564
1.212                -0.07128061       -21.07256
1.216                -0.07233205       -21.16983
1.22                 -0.07335596       -21.26747
1.224                -0.07435217       -21.36551
1.228                -0.07531894       -21.46394
1.232                -0.07625723        -21.5628
1.236                -0.07716622        -21.6621
1.24                 -0.07804557       -21.76187
1.244                -0.07889578       -21.86212
1.248                -0.07971587       -21.96287
1.252                 -0.0805061       -22.06414
1.256                -0.08126876       -22.16596
1.26                 -0.08200299       -22.26834
1.264                -0.08270792       -22.37129
1.268                  -0.083387       -22.47486
1.272                -0.08403913       -22.57904
1.276                -0.08466578       -22.68387
1.28                  -0.0852681       -22.78936
1.284                -0.08584667       -22.89553
1.288                -0.08640432       -23.00241
1.292                 -0.0869407          -23.11
1.296                -0.08745725       -23.21833
1.3                  -0.08795667       -23.32743
1.304                 -0.0884413        -23.4373
1.308                -0.08891139       -23.54797
1.312                -0.08936934       -23.65946
1.316                 -0.0898173       -23.77176
1.32                 -0.09025779       -23.88493
1.324                -0.09069222       -23.99895
1.328                -0.09112437       -24.11386
1.332                -0.09155456       -24.22965
1.336                -0.09198715       -24.34637
1.34                 -0.09242368         -24.464
1.344                -0.09286663       -24.58257
1.348                -0.09332036       -24.70209
1.352                -0.09378552       -24.82258
1.356                -0.09426608       -24.94404
1.36                 -0.09476439       -25.06648
1.364                  -0.095284       -25.18992
1.368                -0.09582689       -25.31437
1.372                 -0.0963976       -25.43982
1.376                -0.09699762        -25.5663
1.38                  -0.0976305       -25.69381
1.384                -0.09829969       -25.82236
1.388                -0.09900719       -25.95194
1.392                -0.09975723       -26.08257
1.396                 -0.1005518       -26.21425
1.4                   -0.1013955       -26.34699
1.404                 -0.1022901       -26.48078
1.408                 -0.1032399       -26.61563
1.412                 -0.1042444       -26.75154
1.416                 -0.1053117       -26.88851
1.42                  -0.1064411       -27.02654
1.424                 -0.1076373       -27.16564
1.428                 -0.1089019       -27.30579
1.432                 -0.1102376         -27.447
1.436                 -0.1116475       -27.58926
1.44                  -0.1131354       -27.73257
1.444                 -0.1147032       -27.87694
1.448                 -0.1163516       -28.02234
1.452                  -0.118085       -28.16878
1.456                 -0.1199058       -28.31626
1.46                  -0.1218153       -28.46476
1.464                  -0.123816       -28.61429
1.468                 -0.1259101       -28.76483
1.472                 -0.1280999       -28.91637
1.476                 -0.1303856       -29.06892
1.48                  -0.1327715       -29.22247
1.484                 -0.1352571       -29.37699
1.488                 -0.1378442        -29.5325
1.492                 -0.1405355       -29.68897
1.496                 -0.1433314       -29.84641
1.5                   -0.1462331        -30.0048
1.504                  -0.149242       -30.16414
1.508                 -0.1523571       -30.32441
1.512                 -0.1555828       -30.48562
1.516                  -0.158917       -30.64774
1.52                  -0.1623606       -30.81078
1.524                 -0.1659152       -30.97473
1.528                 -0.1695811       -31.13957
1.532                 -0.1733559       -31.30531
1.536                 -0.1772423       -31.47194
1.54                  -0.1812392       -31.63944
1.544                 -0.1853481       -31.80783
1.548                 -0.1895662       -31.97708
1.552                 -0.1938937        -32.1472
1.556                 -0.1983316       -32.31818
1.56                  -0.2028781       -32.49002
1.564                 -0.2075319       -32.66271
1.568                 -0.2122937       -32.83627
1.572                 -0.2171611       -33.01067
1.576                 -0.2221346       -33.18593
1.58                  -0.2272116       -33.36204
1.584                 -0.2323933       -33.53902
1.588                 -0.2376747       -33.71685
1.592                 -0.2430574       -33.89554
1.596                 -0.2485395       -34.07511
1.6                   -0.2541189       -34.25555
1.604                 -0.2597949       -34.43688
1.608                 -0.2655652       -34.61909
1.612                 -0.2714286       -34.80221
1.616                 -0.2773833       -34.98623
1.62                  -0.2834284       -35.17119
1.624                 -0.2895622       -35.35708
1.628                 -0.2957813       -35.54392
1.632                 -0.3020871       -35.73173
1.636                 -0.3084753       -35.92052
1.64                  -0.3149471       -36.11033
1.644                 -0.3214979       -36.30115
1.648                  -0.328127       -36.49303
1.652                 -0.3348363       -36.68598
1.656                 -0.3416194       -36.88001
1.66                   -0.348479       -37.07517
1.664                 -0.3554128       -37.27149
1.668                 -0.3624185       -37.46898
1.672                 -0.3694955       -37.66767
1.676                 -0.3766452       -37.86761
1.68                  -0.3838624       -38.06882
1.684                 -0.3911512       -38.27134
1.688                  -0.398509        -38.4752
1.692                 -0.4059358       -38.68044
1.696                 -0.4134302       -38.88711
1.7                   -0.4209935       -39.09523
1.704                 -0.4286258       -39.30487
1.708                 -0.4363293       -39.51604
1.712                 -0.4441012       -39.72879
1.716                 -0.4519445       -39.94318
1.72                  -0.4598589       -40.15926
1.724                 -0.4678478       -40.37706
1.728                 -0.4759112       -40.59663
1.732                 -0.4840522       -40.81803
1.736                 -0.4922715       -41.04131
1.74                  -0.5005715       -41.26651
1.744                 -0.5089554        -41.4937
1.748                 -0.5174278       -41.72291
1.752                 -0.5259872       -41.95421
1.756                 -0.5346408       -42.18765
1.76                  -0.5433922       -42.42329
1.764                 -0.5522438       -42.66118
1.768                 -0.5612027       -42.90138
1.772                 -0.5702706       -43.14395
1.776                 -0.5794541       -43.38893
1.78                  -0.5887576       -43.63639
1.784                 -0.5981883        -43.8864
1.788                 -0.6077508         -44.139
1.792                  -0.617451       -44.39425
1.796                 -0.6272988       -44.65222
1.8                   -0.6372968       -44.91295
1.804                 -0.6474544       -45.17652
1.808                 -0.6577793       -45.44297
1.812                 -0.6682794       -45.71236
1.816                 -0.6789635       -45.98476
1.82                  -0.6898399       -46.26023
1.824                 -0.7009163        -46.5388
1.828                 -0.7122043       -46.82055
1.832                 -0.7237118       -47.10553
1.836                 -0.7354501        -47.3938
1.84                  -0.7474274       -47.68541
1.844                 -0.7596566       -47.98042
1.848                 -0.7721467       -48.27887
1.852                 -0.7849097       -48.58082
1.856                 -0.7979586       -48.88634
1.86                  -0.8113032       -49.19545
1.864                 -0.8249565       -49.50824
1.868                 -0.8389307       -49.82472
1.872                 -0.8532384       -50.14496
1.876                 -0.8678945       -50.46901
1.88                  -0.8829084        -50.7969
1.884                 -0.8982968        -51.1287
1.888                 -0.9140727       -51.46445
1.892                 -0.9302505       -51.80417
1.896                 -0.9468453       -52.14792
1.9                   -0.9638694       -52.49576
1.904                 -0.9813391        -52.8477
1.908                 -0.9992699       -53.20379
1.912                  -1.017678        -53.5641
1.916                  -1.036576       -53.92861
1.92                   -1.055982        -54.2974
1.924                  -1.075912        -54.6705
1.928                  -1.096383       -55.04793
1.932                  -1.117409       -55.42974
1.936                   -1.13901       -55.81594
1.94                   -1.161199       -56.20659
1.944                  -1.183998        -56.6017
1.948                   -1.20742       -57.00131
1.952                  -1.231485       -57.40545
1.956                   -1.25621       -57.81414
1.96                   -1.281614       -58.22742
1.964                  -1.307714        -58.6453
1.968                  -1.334529       -59.06783
1.972                  -1.362076         -59.495
1.976                  -1.390378       -59.92687
1.98                    -1.41945       -60.36344
1.984                  -1.449312       -60.80476
1.988                  -1.479985       -61.25082
1.992                  -1.511487       -61.70167
1.996                  -1.543838        -62.1573
2                      -1.577059       -62.61776
2.004                  -1.611169       -63.08307
2.008                  -1.646189       -63.55325
2.012                  -1.682139        -64.0283
2.016                  -1.719042       -64.50828
2.02                   -1.756917       -64.99318
2.024                  -1.795786       -65.48303
2.028                  -1.835671       -65.97786
2.032                  -1.876592       -66.47769
2.036                  -1.918573       -66.98252
2.04                   -1.961636       -67.49242
2.044                  -2.005804       -68.00736
2.048                  -2.051099       -68.52741
2.052                  -2.097545       -69.05257
2.056                  -2.145165       -69.58289
2.06                   -2.193983       -70.11837
2.064                  -2.244021       -70.65905
2.068                  -2.295308       -71.20498
2.072                  -2.347865       -71.75616
2.076                   -2.40172       -72.31264
2.08                   -2.456896       -72.87447
2.084                  -2.513421       -73.44164
2.088                  -2.571321       -74.01426
2.092                  -2.630621       -74.59231
2.096                  -2.691351       -75.17587
2.1                    -2.753539       -75.76499
2.104                  -2.817211       -76.35969
2.108                  -2.882398       -76.96007
2.112                  -2.949127       -77.56612
2.116                  -3.017432       -78.17797
2.12                    -3.08734       -78.79567
2.124                  -3.158884       -79.41925
2.128                  -3.232096       -80.04883
2.132                  -3.307007       -80.68446
2.136                  -3.383653       -81.32622
2.14                   -3.462065       -81.97425
2.144                   -3.54228       -82.62858
2.148                  -3.624334       -83.28936
2.152                  -3.708264       -83.95667
2.156                  -3.794106       -84.63064
2.16                   -3.881898       -85.31139
2.164                  -3.971683       -85.99906
2.168                  -4.063497       -86.69378
2.172                  -4.157387       -87.39571
2.176                  -4.253389         -88.105
2.18                   -4.351554       -88.82184
2.184                  -4.451921       -89.54638
2.188                  -4.554541       -90.27885
2.192                   -4.65946       -91.01947
2.196                  -4.766728       -91.76844
2.2                    -4.876395       -92.52597
2.204                  -4.988513       -93.29236
2.208                  -5.103136       -94.06789
2.212                   -5.22032       -94.85284
2.216                  -5.340122       -95.64749
2.22                   -5.462602       -96.45223
2.224                  -5.587817       -97.26739
2.228                  -5.715833       -98.09337
2.232                  -5.846713       -98.93057
2.236                  -5.980525       -99.77944
2.24                   -6.117335       -100.6405
2.244                  -6.257216       -101.5142
2.248                  -6.400241        -102.401
2.252                  -6.546481       -103.3017
2.256                  -6.696017       -104.2169
2.26                   -6.848927       -105.1471
2.264                  -7.005291       -106.0933
2.268                  -7.165193        -107.056
2.272                  -7.328719       -108.0363
2.276                  -7.495955        -109.035
2.28                   -7.666988       -110.0532
2.284                  -7.841911       -111.0919
2.288                  -8.020814       -112.1523
2.292                   -8.20379       -113.2356
2.296                  -8.390931       -114.3433
2.3                    -8.582328       -115.4768
2.304                  -8.778072       -116.6377
2.308                  -8.978255       -117.8277
2.312                   -9.18296       -119.0488
2.316                  -9.392269       -120.3031
2.32                   -9.606257       -121.5927
2.324                  -9.824993       -122.9201
2.328                  -10.04853        -124.288
2.332                  -10.27692       -125.6991
2.336                  -10.51018       -127.1567
2.34                   -10.74831       -128.6642
2.344                  -10.99129       -130.2251
2.348                  -11.23907       -131.8436
2.352                  -11.49156       -133.5239
2.356                  -11.74859       -135.2707
2.36                   -12.00997        -137.089
2.364                  -12.27542       -138.9842
2.368                  -12.54457        -140.962
2.372                  -12.81696       -143.0286
2.376                  -13.09199       -145.1903
2.38                   -13.36894       -147.4539
2.384                  -13.64691       -149.8261
2.388                  -13.92482       -152.3139
2.392                  -14.20137       -154.9239
2.396                  -14.47502       -157.6627
2.4                    -14.74399        -160.536
2.404                  -15.00623       -163.5486