! TOUCHSTONE file generated by CST MICROWAVE STUDIO
! Date and time: Thu May 12 13:04:52 2022
! Project name: ant1_ceramic_sweep_fr4.cst
! Parameters = {e=0.035; h=1.6; i=0.8; l1=0.5; l2=20.96; ls=88; wl=1.7; ws=30}
! Header version: 2018
! Port assignment regex: !\s*Touchstone port\s*([0-9]+)\s*=\s*(CST MWS port|CST DS port)\s*([0-9]+|Zmin|Zmax)\s*\(\"(.*)\"\)(\s*mode\s*([0-9]+))?.*
! Touchstone port assignment:
! Touchstone port 1 = CST MWS port 1 ("")
# GHz S DB R 50
0                  -0.0007579742              -0
0.004              -0.0007580651     -0.04345327
0.008              -0.0007583375     -0.08690736
0.012              -0.0007582732      -0.1303631
0.016              -0.0007573534      -0.1738212
0.02               -0.0007571302      -0.2172826
0.024              -0.0007576019      -0.2607479
0.028              -0.0007582487      -0.3042181
0.032              -0.0007585505      -0.3476939
0.036               -0.000757987      -0.3911759
0.04                -0.000759144       -0.434665
0.044              -0.0007594293      -0.4781618
0.048              -0.0007603926      -0.5216671
0.052              -0.0007620303      -0.5651813
0.056              -0.0007633025      -0.6087053
0.06               -0.0007657582      -0.6522397
0.064              -0.0007683575      -0.6957848
0.068              -0.0007716133      -0.7393413
0.072              -0.0007744851      -0.7829098
0.076              -0.0007800745      -0.8264907
0.08               -0.0007852697      -0.8700844
0.084              -0.0007900653      -0.9136913
0.088              -0.0007975622      -0.9573121
0.092              -0.0008051671       -1.000946
0.096              -0.0008144267       -1.044595
0.1                -0.0008237827       -1.088258
0.104              -0.0008347832       -1.131936
0.108              -0.0008474219       -1.175629
0.112              -0.0008601397       -1.219337
0.116              -0.0008750047        -1.26306
0.12               -0.0008909727       -1.306798
0.124              -0.0009085587       -1.350552
0.128              -0.0009267205        -1.39432
0.132              -0.0009480423       -1.438105
0.136               -0.000969413       -1.481904
0.14               -0.0009923802       -1.525719
0.144               -0.001018494       -1.569549
0.148               -0.001043606       -1.613393
0.152               -0.001073409       -1.657253
0.156               -0.001102202       -1.701127
0.16                -0.001134124       -1.745016
0.164               -0.001167618       -1.788919
0.168               -0.001201124       -1.832837
0.172               -0.001238785       -1.876768
0.176               -0.001276452       -1.920714
0.18                -0.001315677       -1.964672
0.184               -0.001356973       -2.008644
0.188                 -0.0013993        -2.05263
0.192               -0.001442658       -2.096628
0.196               -0.001488077       -2.140639
0.2                 -0.001534518       -2.184664
0.204               -0.001581977         -2.2287
0.208                -0.00163097        -2.27275
0.212               -0.001680977       -2.316811
0.216               -0.001730436       -2.360885
0.22                -0.001782972       -2.404971
0.224               -0.001834954        -2.44907
0.228               -0.001887933       -2.493181
0.232                -0.00194035       -2.537304
0.236               -0.001994268       -2.581441
0.24                -0.002047614       -2.625589
0.244               -0.002101934       -2.669752
0.248               -0.002155152       -2.713927
0.252               -0.002208811       -2.758116
0.256               -0.002261352       -2.802319
0.26                -0.002313802       -2.846537
0.264               -0.002365631        -2.89077
0.268               -0.002416316       -2.935019
0.272               -0.002466359       -2.979284
0.276               -0.002514719       -3.023566
0.28                -0.002562411       -3.067867
0.284               -0.002607358       -3.112186
0.288               -0.002650574       -3.156525
0.292               -0.002693084       -3.200885
0.296               -0.002733313       -3.245267
0.3                 -0.002769695       -3.289671
0.304               -0.002805314         -3.3341
0.308               -0.002837558       -3.378554
0.312               -0.002867966       -3.423036
0.316               -0.002895473       -3.467546
0.32                -0.002918504       -3.512085
0.324               -0.002940653       -3.556657
0.328               -0.002958277       -3.601261
0.332               -0.002972896         -3.6459
0.336                -0.00298396       -3.690576
0.34                -0.002991434       -3.735291
0.344               -0.002995293       -3.780046
0.348               -0.002994988       -3.824843
0.352               -0.002991511       -3.869684
0.356               -0.002983787       -3.914572
0.36                -0.002971273       -3.959507
0.364               -0.002956495       -4.004494
0.368               -0.002937368       -4.049532
0.372               -0.002913311       -4.094626
0.376                -0.00288584       -4.139777
0.38                -0.002854394       -4.184987
0.384               -0.002818407       -4.230258
0.388               -0.002779377       -4.275594
0.392               -0.002736228       -4.320995
0.396               -0.002688918       -4.366464
0.4                 -0.002637902       -4.412004
0.404               -0.002583648       -4.457616
0.408               -0.002525581       -4.503304
0.412               -0.002464175       -4.549068
0.416               -0.002400399       -4.594913
0.42                -0.002332653       -4.640839
0.424               -0.002261403       -4.686848
0.428               -0.002188661       -4.732942
0.432               -0.002112284       -4.779126
0.436               -0.002034303       -4.825399
0.44                -0.001953625       -4.871763
0.444               -0.001871232        -4.91822
0.448               -0.001787572       -4.964774
0.452               -0.001701554       -5.011424
0.456               -0.001616754       -5.058173
0.46                -0.001528969       -5.105022
0.464               -0.001441769       -5.151973
0.468               -0.001354059       -5.199028
0.472               -0.001265785       -5.246186
0.476               -0.001177407       -5.293451
0.48                -0.001090432       -5.340822
0.484               -0.001004292       -5.388301
0.488              -0.0009199579       -5.435889
0.492              -0.0008373948       -5.483587
0.496              -0.0007560397       -5.531393
0.5                -0.0006768624       -5.579311
0.504              -0.0006018881        -5.62734
0.508               -0.000528491       -5.675481
0.512              -0.0004592238       -5.723733
0.516              -0.0003924787       -5.772098
0.52               -0.0003308141       -5.820574
0.524              -0.0002721133       -5.869161
0.528              -0.0002204863       -5.917861
0.532              -0.0001717633       -5.966671
0.536              -0.0001300409       -6.015592
0.54               -9.220012e-05       -6.064623
0.544              -6.130099e-05       -6.113763
0.548              -3.525528e-05       -6.163012
0.552              -1.818708e-05       -6.212369
0.556              -5.401017e-06       -6.261832
0.56               -5.071464e-07       -6.311401
0.564              -2.984995e-06       -6.361074
0.568              -1.279364e-05       -6.410851
0.572              -3.097187e-05        -6.46073
0.576              -5.492218e-05       -6.510708
0.58               -8.824995e-05       -6.560786
0.584              -0.0001294027        -6.61096
0.588               -0.000179408        -6.66123
0.592              -0.0002372071       -6.711596
0.596              -0.0003049026       -6.762052
0.6                -0.0003798724         -6.8126
0.604              -0.0004631858       -6.863236
0.608              -0.0005563732       -6.913959
0.612              -0.0006568458       -6.964767
0.616              -0.0007672341       -7.015658
0.62               -0.0008854261       -7.066631
0.624               -0.001013003       -7.117683
0.628               -0.001148929       -7.168813
0.632               -0.001292718       -7.220018
0.636               -0.001445358       -7.271299
0.64                -0.001605361       -7.322651
0.644               -0.001773213       -7.374073
0.648                -0.00194998       -7.425565
0.652               -0.002134126       -7.477123
0.656               -0.002325063        -7.52875
0.66                -0.002522898       -7.580438
0.664               -0.002728618       -7.632191
0.668                -0.00294064       -7.684006
0.672               -0.003158496       -7.735882
0.676                -0.00338317       -7.787819
0.68                -0.003612161       -7.839811
0.684               -0.003846897       -7.891865
0.688               -0.004086381       -7.943976
0.692               -0.004330628       -7.996143
0.696               -0.004578057       -8.048366
0.7                 -0.004829654       -8.100647
0.704               -0.005084353       -8.152985
0.708               -0.005340096       -8.205378
0.712               -0.005600965        -8.25783
0.716                -0.00586124       -8.310339
0.72                -0.006123974       -8.362906
0.724               -0.006387056       -8.415533
0.728               -0.006649929       -8.468218
0.732               -0.006913556       -8.520966
0.736               -0.007175823       -8.573776
0.74                -0.007437633       -8.626653
0.744                -0.00769748       -8.679593
0.748               -0.007955181       -8.732603
0.752               -0.008209643       -8.785683
0.756               -0.008461801       -8.838837
0.76                -0.008710028       -8.892067
0.764               -0.008954212       -8.945374
0.768               -0.009193235       -8.998762
0.772               -0.009428478       -9.052236
0.776               -0.009657795       -9.105797
0.78                -0.009882049       -9.159451
0.784                -0.01009907       -9.213198
0.788                -0.01031023       -9.267047
0.792                -0.01051544       -9.320998
0.796                -0.01071192       -9.375056
0.8                  -0.01090208       -9.429227
0.804                -0.01108475       -9.483514
0.808                -0.01125818       -9.537922
0.812                -0.01142427       -9.592457
0.816                -0.01158185       -9.647121
0.82                 -0.01173064       -9.701922
0.824                -0.01187047       -9.756865
0.828                -0.01200175       -9.811953
0.832                 -0.0121241       -9.867195
0.836                -0.01223749       -9.922591
0.84                 -0.01234154       -9.978153
0.844                -0.01243773       -10.03388
0.848                -0.01252422       -10.08978
0.852                -0.01260178       -10.14587
0.856                -0.01267127       -10.20213
0.86                 -0.01273144       -10.25859
0.864                -0.01278454       -10.31525
0.868                -0.01282836        -10.3721
0.872                -0.01286521       -10.42917
0.876                -0.01289432       -10.48644
0.88                 -0.01291651       -10.54394
0.884                -0.01293154       -10.60166
0.888                -0.01294067       -10.65961
0.892                 -0.0129437       -10.71779
0.896                -0.01294088       -10.77622
0.9                  -0.01293302       -10.83489
0.904                -0.01292197        -10.8938
0.908                -0.01290579       -10.95298
0.912                -0.01288704       -11.01241
0.916                -0.01286592       -11.07211
0.92                 -0.01284215       -11.13207
0.924                -0.01281707        -11.1923
0.928                -0.01279254       -11.25282
0.932                -0.01276677       -11.31361
0.936                -0.01274271       -11.37468
0.94                 -0.01272056       -11.43604
0.944                -0.01269966       -11.49769
0.948                 -0.0126829       -11.55963
0.952                 -0.0126706       -11.62187
0.956                -0.01266302       -11.68441
0.96                 -0.01266017       -11.74724
0.964                -0.01266527       -11.81037
0.968                -0.01267616       -11.87381
0.972                -0.01269636       -11.93755
0.976                -0.01272612        -12.0016
0.98                  -0.0127659       -12.06595
0.984                -0.01281554       -12.13061
0.988                -0.01287697       -12.19558
0.992                -0.01295158       -12.26085
0.996                -0.01303934       -12.32643
1                    -0.01314056       -12.39232
1.004                -0.01325731       -12.45851
1.008                -0.01338941       -12.52501
1.012                -0.01353887       -12.59181
1.016                -0.01370415       -12.65891
1.02                 -0.01388768       -12.72632
1.024                -0.01409049       -12.79402
1.028                -0.01431246       -12.86202
1.032                -0.01455466       -12.93031
1.036                -0.01481548        -12.9989
1.04                 -0.01509855       -13.06777
1.044                -0.01540325       -13.13693
1.048                -0.01573005       -13.20641
1.052                -0.01607962        -13.2761
1.056                -0.01645268        -13.3461
1.06                  -0.0168485       -13.41639
1.064                -0.01726835       -13.48691
1.068                -0.01771189       -13.55775
1.072                -0.01817876       -13.62881
1.076                -0.01867051       -13.70015
1.08                 -0.01918797       -13.77173
1.084                -0.01972915       -13.84358
1.088                -0.02029529       -13.91565
1.092                -0.02088643         -13.988
1.096                -0.02150241       -14.06059
1.1                  -0.02214208        -14.1334
1.104                -0.02280783       -14.20643
1.108                -0.02349668        -14.2797
1.112                -0.02420995       -14.35322
1.116                -0.02494691       -14.42693
1.12                 -0.02570715       -14.50089
1.124                -0.02649044       -14.57504
1.128                -0.02729756       -14.64941
1.132                -0.02812615         -14.724
1.136                -0.02897573        -14.7988
1.14                 -0.02984753       -14.87381
1.144                -0.03073879       -14.94902
1.148                -0.03165053       -15.02443
1.152                -0.03258101       -15.10005
1.156                -0.03353039       -15.17587
1.16                 -0.03449741       -15.25189
1.164                -0.03548103        -15.3281
1.168                -0.03648157       -15.40453
1.172                -0.03749692       -15.48114
1.176                 -0.0385259       -15.55796
1.18                 -0.03956918       -15.63499
1.184                -0.04062572       -15.71222
1.188                -0.04169334       -15.78965
1.192                -0.04277155       -15.86729
1.196                -0.04385989       -15.94514
1.2                   -0.0449568        -16.0232
1.204                -0.04606101       -16.10149
1.208                -0.04717333       -16.17999
1.212                -0.04829084       -16.25872
1.216                 -0.0494136       -16.33768
1.22                 -0.05054077       -16.41687
1.224                -0.05167034       -16.49631
1.228                -0.05280179         -16.576
1.232                -0.05393588       -16.65594
1.236                -0.05506896       -16.73614
1.24                  -0.0562019       -16.81662
1.244                -0.05733396       -16.89737
1.248                -0.05846371       -16.97841
1.252                -0.05958975       -17.05974
1.256                 -0.0607135       -17.14138
1.26                 -0.06183207       -17.22333
1.264                -0.06294589       -17.30561
1.268                -0.06405443       -17.38822
1.272                -0.06515734       -17.47118
1.276                -0.06625278        -17.5545
1.28                 -0.06734218       -17.63819
1.284                -0.06842376       -17.72226
1.288                -0.06949755       -17.80673
1.292                 -0.0705637        -17.8916
1.296                -0.07162229       -17.97689
1.3                  -0.07267249       -18.06262
1.304                -0.07371516       -18.14879
1.308                -0.07474943       -18.23542
1.312                -0.07577574       -18.32253
1.316                -0.07679425       -18.41012
1.32                 -0.07780514       -18.49822
1.324                -0.07881003       -18.58683
1.328                -0.07980664       -18.67597
1.332                -0.08079931       -18.76566
1.336                -0.08178598       -18.85591
1.34                 -0.08276782       -18.94674
1.344                -0.08374603       -19.03815
1.348                -0.08472052       -19.13017
1.352                 -0.0856941        -19.2228
1.356                -0.08666582       -19.31607
1.36                 -0.08763832       -19.40998
1.364                 -0.0886115       -19.50456
1.368                -0.08958814        -19.5998
1.372                -0.09056834       -19.69574
1.376                -0.09155346       -19.79238
1.38                 -0.09254706       -19.88974
1.384                -0.09354764       -19.98782
1.388                 -0.0945593       -20.08664
1.392                -0.09558366       -20.18622
1.396                -0.09662075       -20.28656
1.4                  -0.09767439       -20.38768
1.404                 -0.0987449       -20.48958
1.408                -0.09983557       -20.59229
1.412                 -0.1009474       -20.69581
1.416                 -0.1020842       -20.80014
1.42                  -0.1032451       -20.90531
1.424                 -0.1044353       -21.01132
1.428                 -0.1056558       -21.11817
1.432                 -0.1069077       -21.22588
1.436                 -0.1081968       -21.33445
1.44                  -0.1095211       -21.44389
1.444                 -0.1108856       -21.55422
1.448                 -0.1122922       -21.66542
1.452                 -0.1137427       -21.77752
1.456                 -0.1152392       -21.89051
1.46                  -0.1167863        -22.0044
1.464                 -0.1183837       -22.11919
1.468                 -0.1200359       -22.23489
1.472                 -0.1217431        -22.3515
1.476                 -0.1235102       -22.46903
1.48                  -0.1253366       -22.58747
1.484                 -0.1272271       -22.70683
1.488                 -0.1291839       -22.82711
1.492                 -0.1312069        -22.9483
1.496                 -0.1333013       -23.07042
1.5                   -0.1354672       -23.19345
1.504                 -0.1377077       -23.31741
1.508                 -0.1400249       -23.44228
1.512                 -0.1424205       -23.56807
1.516                 -0.1448958       -23.69477
1.52                  -0.1474535       -23.82238
1.524                 -0.1500964       -23.95091
1.528                 -0.1528249       -24.08034
1.532                 -0.1556403       -24.21068
1.536                 -0.1585463       -24.34193
1.54                  -0.1615419       -24.47406
1.544                 -0.1646314        -24.6071
1.548                 -0.1678139       -24.74103
1.552                 -0.1710919       -24.87584
1.556                  -0.174465       -25.01155
1.56                  -0.1779373       -25.14813
1.564                 -0.1815075        -25.2856
1.568                 -0.1851772       -25.42394
1.572                 -0.1889464       -25.56314
1.576                 -0.1928178       -25.70322
1.58                  -0.1967904       -25.84416
1.584                 -0.2008664       -25.98597
1.588                 -0.2050456       -26.12864
1.592                  -0.209328       -26.27217
1.596                 -0.2137128       -26.41655
1.6                   -0.2182039       -26.56179
1.604                 -0.2227973       -26.70788
1.608                 -0.2274962       -26.85483
1.612                 -0.2322992       -27.00264
1.616                 -0.2372056        -27.1513
1.62                  -0.2422174       -27.30082
1.624                 -0.2473332        -27.4512
1.628                 -0.2525516       -27.60244
1.632                 -0.2578729       -27.75455
1.636                 -0.2632986       -27.90753
1.64                  -0.2688252       -28.06138
1.644                 -0.2744556       -28.21612
1.648                 -0.2801861       -28.37175
1.652                 -0.2860181       -28.52829
1.656                 -0.2919504       -28.68572
1.66                  -0.2979825       -28.84408
1.664                 -0.3041134       -29.00337
1.668                 -0.3103426       -29.16359
1.672                 -0.3166703       -29.32478
1.676                 -0.3230955       -29.48693
1.68                  -0.3296166       -29.65007
1.684                 -0.3362336       -29.81422
1.688                 -0.3429451       -29.97938
1.692                 -0.3497536       -30.14558
1.696                 -0.3566558       -30.31286
1.7                   -0.3636525        -30.4812
1.704                 -0.3707435       -30.65066
1.708                 -0.3779278       -30.82126
1.712                 -0.3852055         -30.993
1.716                 -0.3925771       -31.16594
1.72                  -0.4000412       -31.34009
1.724                 -0.4076007       -31.51548
1.728                 -0.4152529       -31.69214
1.732                 -0.4230003       -31.87011
1.736                 -0.4308439       -32.04943
1.74                   -0.438782       -32.23012
1.744                 -0.4468189       -32.41222
1.748                  -0.454953       -32.59576
1.752                 -0.4631856       -32.78079
1.756                 -0.4715208       -32.96735
1.76                  -0.4799588       -33.15548
1.764                 -0.4885017       -33.34522
1.768                 -0.4971503        -33.5366
1.772                 -0.5059109       -33.72969
1.776                 -0.5147821       -33.92451
1.78                  -0.5237687       -34.12112
1.784                 -0.5328745       -34.31956
1.788                 -0.5421022       -34.51988
1.792                 -0.5514548       -34.72213
1.796                 -0.5609391       -34.92636
1.8                   -0.5705573       -35.13261
1.804                 -0.5803131       -35.34094
1.808                 -0.5902148        -35.5514
1.812                 -0.6002655       -35.76404
1.816                 -0.6104715        -35.9789
1.82                  -0.6208388       -36.19605
1.824                 -0.6313737       -36.41553
1.828                 -0.6420828        -36.6374
1.832                 -0.6529736       -36.86171
1.836                 -0.6640531       -37.08851
1.84                  -0.6753303       -37.31787
1.844                 -0.6868112        -37.5498
1.848                 -0.6985046       -37.78441
1.852                 -0.7104212        -38.0217
1.856                 -0.7225693       -38.26176
1.86                  -0.7349587       -38.50462
1.864                 -0.7475974       -38.75034
1.868                 -0.7604988       -38.99898
1.872                  -0.773671       -39.25056
1.876                 -0.7871266       -39.50517
1.88                  -0.8008781       -39.76284
1.884                 -0.8149344       -40.02361
1.888                 -0.8293099       -40.28754
1.892                 -0.8440156       -40.55467
1.896                 -0.8590664       -40.82506
1.9                    -0.874474       -41.09873
1.904                 -0.8902523       -41.37575
1.908                 -0.9064156       -41.65615
1.912                 -0.9229785       -41.93997
1.916                 -0.9399549       -42.22727
1.92                  -0.9573608       -42.51806
1.924                 -0.9752109        -42.8124
1.928                 -0.9935228       -43.11033
1.932                   -1.01231       -43.41187
1.936                  -1.031589       -43.71705
1.94                    -1.05138       -44.02594
1.944                  -1.071696       -44.33854
1.948                  -1.092559       -44.65488
1.952                  -1.113982       -44.97501
1.956                  -1.135985       -45.29894
1.96                   -1.158589       -45.62671
1.964                  -1.181809       -45.95833
1.968                  -1.205667       -46.29384
1.972                   -1.23018       -46.63325
1.976                   -1.25537       -46.97657
1.98                   -1.281256       -47.32385
1.984                  -1.307859       -47.67509
1.988                    -1.3352       -48.03031
1.992                  -1.363299       -48.38951
1.996                  -1.392177       -48.75271
2                      -1.421858       -49.11993
2.004                  -1.452363       -49.49117
2.008                  -1.483715       -49.86647
2.012                  -1.515936       -50.24579
2.016                  -1.549048       -50.62917
2.02                   -1.583076       -51.01658
2.024                  -1.618044       -51.40807
2.028                  -1.653975        -51.8036
2.032                  -1.690897        -52.2032
2.036                  -1.728831       -52.60686
2.04                   -1.767804       -53.01457
2.044                  -1.807841       -53.42633
2.048                   -1.84897       -53.84214
2.052                  -1.891216         -54.262
2.056                  -1.934606       -54.68589
2.06                   -1.979169       -55.11381
2.064                   -2.02493       -55.54574
2.068                  -2.071921       -55.98169
2.072                   -2.12017       -56.42164
2.076                  -2.169706       -56.86558
2.08                   -2.220559       -57.31349
2.084                  -2.272761       -57.76537
2.088                   -2.32634        -58.2212
2.092                  -2.381331       -58.68095
2.096                  -2.437767       -59.14464
2.1                    -2.495679       -59.61222
2.104                  -2.555103       -60.08369
2.108                  -2.616072       -60.55903
2.112                  -2.678623       -61.03824
2.116                  -2.742792       -61.52127
2.12                   -2.808617       -62.00813
2.124                  -2.876134       -62.49878
2.128                  -2.945384       -62.99322
2.132                  -3.016408       -63.49141
2.136                  -3.089246       -63.99336
2.14                   -3.163942       -64.49904
2.144                  -3.240539       -65.00843
2.148                  -3.319081       -65.52152
2.152                  -3.399617       -66.03827
2.156                  -3.482192        -66.5587
2.16                   -3.566857       -67.08277
2.164                  -3.653662       -67.61044
2.168                  -3.742662       -68.14175
2.172                  -3.833911       -68.67666
2.176                  -3.927463       -69.21515
2.18                    -4.02338       -69.75722
2.184                  -4.121719       -70.30286
2.188                  -4.222546       -70.85205
2.192                  -4.325927        -71.4048
2.196                  -4.431927       -71.96108
2.2                    -4.540621       -72.52091
2.204                   -4.65208       -73.08429
2.208                  -4.766384       -73.65122
2.212                  -4.883611       -74.22168
2.216                  -5.003844       -74.79572
2.22                   -5.127175       -75.37331
2.224                  -5.253696        -75.9545
2.228                  -5.383501       -76.53927
2.232                  -5.516694       -77.12768
2.236                  -5.653383       -77.71976
2.24                   -5.793676       -78.31553
2.244                  -5.937695       -78.91502
2.248                  -6.085566        -79.5183
2.252                  -6.237419       -80.12542
2.256                  -6.393393       -80.73642
2.26                   -6.553639       -81.35141
2.264                  -6.718311       -81.97046
2.268                  -6.887575       -82.59366
2.272                  -7.061611       -83.22112
2.276                  -7.240607       -83.85297
2.28                   -7.424762       -84.48934
2.284                  -7.614291       -85.13038
2.288                  -7.809426       -85.77628
2.292                  -8.010414       -86.42723
2.296                  -8.217518       -87.08347
2.3                    -8.431022       -87.74524
2.304                  -8.651237       -88.41282
2.308                  -8.878492       -89.08655
2.312                  -9.113148       -89.76681
2.316                  -9.355593       -90.45399
2.32                   -9.606255       -91.14858
2.324                  -9.865592       -91.85114
2.328                  -10.13411       -92.56225
2.332                  -10.41237       -93.28266
2.336                  -10.70098       -94.01314
2.34                   -11.00061       -94.75465
2.344                  -11.31201       -95.50828
2.348                    -11.636       -96.27527
2.352                   -11.9735       -97.05711
2.356                  -12.32556        -97.8555
2.36                   -12.69332       -98.67249
2.364                  -13.07811       -99.51046
2.368                  -13.48142       -100.3723
2.372                  -13.90494       -101.2615
2.376                  -14.35062       -102.1822
2.38                   -14.82072       -103.1395
2.384                  -15.31788       -104.1397
2.388                  -15.84515       -105.1909
2.392                  -16.40619       -106.3029
2.396                  -17.00533       -107.4885
2.4                    -17.64779       -108.7644
2.404                  -18.33992       -110.1528