! TOUCHSTONE file generated by CST MICROWAVE STUDIO
! Date and time: Fri May  6 15:38:57 2022
! Project name: ant1_ceramic_sweep_fr4.cst
! Parameters = {e=0.035; h=1.6; i=0.8; l1=0.5; l2=20.96; ls=72; wl=1.7; ws=30}
! Header version: 2018
! Port assignment regex: !\s*Touchstone port\s*([0-9]+)\s*=\s*(CST MWS port|CST DS port)\s*([0-9]+|Zmin|Zmax)\s*\(\"(.*)\"\)(\s*mode\s*([0-9]+))?.*
! Touchstone port assignment:
! Touchstone port 1 = CST MWS port 1 ("")
# GHz S DB R 50
0                    -0.01482045              -0
0.004                   -0.01481     -0.04029074
0.008                -0.01477555     -0.08059045
0.012                -0.01471761      -0.1209081
0.016                -0.01463721      -0.1612526
0.02                 -0.01453433      -0.2016327
0.024                   -0.01441      -0.2420571
0.028                -0.01426315      -0.2825345
0.032                -0.01409532      -0.3230732
0.036                -0.01390649      -0.3636816
0.04                 -0.01369765      -0.4043677
0.044                -0.01346931      -0.4451392
0.048                 -0.0132214      -0.4860039
0.052                -0.01295651      -0.5269688
0.056                -0.01267405      -0.5680414
0.06                  -0.0123745      -0.6092277
0.064                -0.01205938      -0.6505347
0.068                -0.01173122      -0.6919681
0.072                -0.01138791      -0.7335337
0.076                -0.01103352      -0.7752367
0.08                 -0.01066646       -0.817082
0.084                -0.01029081      -0.8590741
0.088               -0.009905476      -0.9012171
0.092               -0.009511958      -0.9435143
0.096               -0.009112265      -0.9859694
0.1                 -0.008706858       -1.028585
0.104                -0.00829723       -1.071363
0.108                -0.00788591       -1.114305
0.112                -0.00747284       -1.157413
0.116               -0.007058477       -1.200688
0.12                -0.006645353        -1.24413
0.124               -0.006235482       -1.287739
0.128               -0.005828807       -1.331514
0.132               -0.005427348       -1.375455
0.136               -0.005031049        -1.41956
0.14                 -0.00464245       -1.463827
0.144                -0.00426254       -1.508253
0.148               -0.003893344       -1.552837
0.152               -0.003534301       -1.597574
0.156               -0.003187443       -1.642462
0.16                -0.002853253       -1.687496
0.164               -0.002533251       -1.732671
0.168               -0.002228443       -1.777983
0.172               -0.001940361       -1.823427
0.176               -0.001668981       -1.868997
0.18                 -0.00141584       -1.914687
0.184                -0.00118248       -1.960492
0.188              -0.0009663066       -2.006404
0.192              -0.0007714567       -2.052418
0.196              -0.0005974194       -2.098526
0.2                -0.0004447113       -2.144721
0.204              -0.0003133519       -2.190995
0.208              -0.0002054205       -2.237343
0.212               -0.000119394       -2.283754
0.216              -5.632467e-05       -2.330223
0.22               -1.676818e-05        -2.37674
0.224              -7.554208e-07       -2.423299
0.228              -7.810837e-06        -2.46989
0.232              -3.849351e-05       -2.516507
0.236              -9.233503e-05        -2.56314
0.24               -0.0001704229       -2.609783
0.244              -0.0002702225       -2.656427
0.248               -0.000393347       -2.703064
0.252              -0.0005393417       -2.749687
0.256              -0.0007072358       -2.796287
0.26               -0.0008965814       -2.842858
0.264               -0.001106929       -2.889393
0.268               -0.001338348       -2.935884
0.272               -0.001588328       -2.982324
0.276               -0.001859012       -3.028707
0.28                -0.002146334       -3.075027
0.284               -0.002451928       -3.121277
0.288               -0.002773275       -3.167452
0.292               -0.003110451       -3.213547
0.296                 -0.0034625       -3.259556
0.3                 -0.003828454       -3.305476
0.304               -0.004205805       -3.351301
0.308               -0.004594617       -3.397029
0.312               -0.004994961       -3.442655
0.316               -0.005402753       -3.488177
0.32                -0.005818581       -3.533592
0.324               -0.006240945       -3.578897
0.328               -0.006667309       -3.624093
0.332               -0.007099797       -3.669177
0.336               -0.007533265       -3.714149
0.34                -0.007968285       -3.759008
0.344               -0.008402293       -3.803755
0.348               -0.008836353       -3.848391
0.352               -0.009267905       -3.892917
0.356               -0.009694363       -3.937336
0.36                 -0.01011523       -3.981647
0.364                 -0.0105305       -4.025857
0.368                -0.01093708       -4.069966
0.372                -0.01133493       -4.113979
0.376                -0.01172197         -4.1579
0.38                 -0.01209768       -4.201733
0.384                -0.01246043       -4.245485
0.388                -0.01281021        -4.28916
0.392                -0.01314334       -4.332764
0.396                -0.01346131       -4.376303
0.4                  -0.01376252       -4.419785
0.404                -0.01404688       -4.463216
0.408                -0.01431119       -4.506604
0.412                -0.01455593       -4.549955
0.416                -0.01478046       -4.593278
0.42                 -0.01498414       -4.636584
0.424                -0.01516587       -4.679878
0.428                -0.01532655        -4.72317
0.432                -0.01546295       -4.766469
0.436                -0.01557599       -4.809784
0.44                 -0.01566708       -4.853126
0.444                -0.01573299       -4.896502
0.448                -0.01577614       -4.939923
0.452                -0.01579486       -4.983399
0.456                -0.01578898       -5.026939
0.46                 -0.01575886       -5.070553
0.464                -0.01570486       -5.114251
0.468                -0.01562682       -5.158042
0.472                -0.01552508       -5.201936
0.476                -0.01540104       -5.245944
0.48                 -0.01525295       -5.290073
0.484                -0.01508273       -5.334334
0.488                -0.01488967       -5.378735
0.492                -0.01467722       -5.423287
0.496                -0.01444314       -5.467997
0.5                  -0.01418879       -5.512874
0.504                -0.01391711       -5.557926
0.508                -0.01362584       -5.603162
0.512                -0.01331794       -5.648587
0.516                -0.01299425       -5.694211
0.52                 -0.01265511        -5.74004
0.524                -0.01230192        -5.78608
0.528                -0.01193606       -5.832338
0.532                -0.01155841       -5.878818
0.536                -0.01117035       -5.925528
0.54                 -0.01077225        -5.97247
0.544                -0.01036811       -6.019651
0.548               -0.009956741       -6.067074
0.552               -0.009540601       -6.114741
0.556               -0.009120605       -6.162656
0.56                -0.008698155       -6.210822
0.564               -0.008275224        -6.25924
0.568               -0.007852206       -6.307911
0.572               -0.007433152       -6.356838
0.576               -0.007015365       -6.406019
0.58                -0.006603436       -6.455455
0.584               -0.006197785       -6.505146
0.588               -0.005799399       -6.555088
0.592               -0.005411285       -6.605284
0.596               -0.005032931       -6.655727
0.6                 -0.004665803       -6.706418
0.604               -0.004313504       -6.757353
0.608               -0.003974991       -6.808527
0.612               -0.003652304       -6.859937
0.616               -0.003346514       -6.911578
0.62                -0.003058638       -6.963444
0.624               -0.002790755       -7.015533
0.628               -0.002542385       -7.067837
0.632               -0.002316173        -7.12035
0.636               -0.002110609       -7.173064
0.64                -0.001930378       -7.225977
0.644               -0.001773023       -7.279076
0.648               -0.001641154       -7.332357
0.652                -0.00153279       -7.385813
0.656               -0.001452726       -7.439434
0.66                -0.001399488       -7.493213
0.664                -0.00137167       -7.547139
0.668               -0.001372425       -7.601209
0.672               -0.001400925       -7.655409
0.676               -0.001457748       -7.709735
0.68                -0.001542076       -7.764173
0.684               -0.001654004       -7.818718
0.688               -0.001795749       -7.873361
0.692               -0.001965435       -7.928092
0.696               -0.002161631       -7.982902
0.7                 -0.002387597       -8.037786
0.704               -0.002639972       -8.092727
0.708               -0.002918769       -8.147726
0.712               -0.003224262       -8.202769
0.716               -0.003556585        -8.25785
0.72                -0.003913823       -8.312961
0.724               -0.004296157       -8.368094
0.728               -0.004701152        -8.42324
0.732               -0.005129451       -8.478396
0.736               -0.005579712       -8.533552
0.74                 -0.00605158       -8.588701
0.744               -0.006542463       -8.643842
0.748               -0.007052133       -8.698963
0.752               -0.007580148       -8.754062
0.756               -0.008124494       -8.809137
0.76                -0.008684323        -8.86418
0.764               -0.009256602       -8.919186
0.768               -0.009840897       -8.974154
0.772                -0.01043725       -9.029083
0.776                -0.01104368       -9.083969
0.78                 -0.01165711        -9.13881
0.784                -0.01227814       -9.193605
0.788                 -0.0129036       -9.248354
0.792                -0.01353253       -9.303057
0.796                -0.01416331       -9.357714
0.8                  -0.01479543       -9.412327
0.804                -0.01542572       -9.466897
0.808                -0.01605259       -9.521425
0.812                -0.01667692       -9.575919
0.816                -0.01729458       -9.630377
0.82                 -0.01790585       -9.684808
0.824                -0.01850761        -9.73921
0.828                -0.01909909       -9.793595
0.832                -0.01967963       -9.847967
0.836                -0.02024754       -9.902331
0.84                 -0.02080046       -9.956695
0.844                -0.02133771       -10.01106
0.848                -0.02185797       -10.06545
0.852                -0.02236147       -10.11986
0.856                -0.02284492        -10.1743
0.86                 -0.02330741       -10.22879
0.864                -0.02375028       -10.28332
0.868                -0.02417049       -10.33792
0.872                -0.02456726       -10.39259
0.876                -0.02494129       -10.44735
0.88                 -0.02528953        -10.5022
0.884                -0.02561323       -10.55715
0.888                 -0.0259109       -10.61222
0.892                 -0.0261837       -10.66743
0.896                -0.02642913       -10.72278
0.9                  -0.02664784       -10.77828
0.904                -0.02683984       -10.83395
0.908                -0.02700469        -10.8898
0.912                -0.02714353       -10.94584
0.916                -0.02725482       -11.00209
0.92                 -0.02734014       -11.05856
0.924                -0.02739853       -11.11526
0.928                -0.02743159       -11.17221
0.932                -0.02743932       -11.22941
0.936                -0.02742079       -11.28688
0.94                 -0.02737954       -11.34463
0.944                -0.02731363       -11.40268
0.948                -0.02722723       -11.46103
0.952                -0.02711771       -11.51971
0.956                -0.02698778       -11.57871
0.96                 -0.02683851       -11.63805
0.964                -0.02667195       -11.69774
0.968                -0.02648727       -11.75779
0.972                 -0.0262875       -11.81821
0.976                -0.02607381       -11.87902
0.98                 -0.02584681       -11.94021
0.984                -0.02560872        -12.0018
0.988                -0.02536108        -12.0638
0.992                -0.02510618       -12.12621
0.996                -0.02484516       -12.18904
1                    -0.02457872       -12.25229
1.004                -0.02431113       -12.31598
1.008                 -0.0240405        -12.3801
1.012                -0.02377279       -12.44467
1.016                -0.02350607       -12.50968
1.02                 -0.02324634       -12.57514
1.024                -0.02299125       -12.64105
1.028                -0.02274571       -12.70742
1.032                 -0.0225116       -12.77424
1.036                -0.02228818       -12.84151
1.04                 -0.02207947       -12.90924
1.044                -0.02188837       -12.97743
1.048                -0.02171329       -13.04606
1.052                -0.02155801       -13.11515
1.056                -0.02142608       -13.18469
1.06                 -0.02131752       -13.25468
1.064                -0.02123358       -13.32512
1.068                -0.02117611       -13.39596
1.072                -0.02114827       -13.46729
1.076                -0.02115008       -13.53901
1.08                 -0.02118415       -13.61114
1.084                -0.02125034       -13.68373
1.088                -0.02135146       -13.75667
1.092                -0.02148849       -13.83006
1.096                -0.02166228       -13.90385
1.1                  -0.02187471         -13.978
1.104                -0.02212615       -14.05253
1.108                 -0.0224175       -14.12742
1.112                -0.02275015       -14.20266
1.116                 -0.0231251       -14.27828
1.12                 -0.02354265       -14.35426
1.124                -0.02400214       -14.43051
1.128                 -0.0245067       -14.50712
1.132                -0.02505542       -14.58403
1.136                -0.02564781       -14.66124
1.14                 -0.02628521       -14.73875
1.144                -0.02696643       -14.81653
1.148                -0.02769283       -14.89458
1.152                -0.02846361       -14.97289
1.156                -0.02927845       -15.05145
1.16                 -0.03013681       -15.13025
1.164                -0.03103828       -15.20928
1.168                -0.03198326       -15.28853
1.172                -0.03297049       -15.36799
1.176                -0.03399805       -15.44765
1.18                 -0.03506683       -15.52751
1.184                -0.03617406       -15.60755
1.188                -0.03732022       -15.68777
1.192                -0.03850407       -15.76817
1.196                -0.03972444       -15.84873
1.2                  -0.04097869       -15.92944
1.204                -0.04226666       -16.01031
1.208                -0.04358556       -16.09133
1.212                -0.04493576       -16.17248
1.216                -0.04631468       -16.25378
1.22                 -0.04771911       -16.33522
1.224                -0.04915028       -16.41678
1.228                -0.05060341       -16.49848
1.232                -0.05207928       -16.58032
1.236                -0.05357406       -16.66227
1.24                 -0.05508773       -16.74437
1.244                 -0.0566165        -16.8266
1.248                -0.05815896       -16.90896
1.252                -0.05971329       -16.99146
1.256                 -0.0612779       -17.07411
1.26                 -0.06284977        -17.1569
1.264                -0.06442908       -17.23985
1.268                -0.06601107       -17.32296
1.272                -0.06759531       -17.40623
1.276                -0.06917967       -17.48968
1.28                 -0.07076193       -17.57332
1.284                -0.07234215       -17.65715
1.288                -0.07391534       -17.74119
1.292                -0.07548282       -17.82545
1.296                -0.07704008       -17.90993
1.3                   -0.0785869       -17.99466
1.304                -0.08012239       -18.07965
1.308                  -0.081644       -18.16492
1.312                 -0.0831513       -18.25047
1.316                -0.08464171       -18.33632
1.32                 -0.08611601        -18.4225
1.324                -0.08757143       -18.50901
1.328                -0.08900597       -18.59588
1.332                -0.09042171       -18.68313
1.336                 -0.0918167       -18.77078
1.34                 -0.09318932       -18.85884
1.344                -0.09453968       -18.94734
1.348                -0.09586866       -19.03629
1.352                -0.09717385       -19.12572
1.356                -0.09845733       -19.21565
1.36                  -0.0997173        -19.3061
1.364                 -0.1009549       -19.39709
1.368                 -0.1021702       -19.48865
1.372                 -0.1033641       -19.58079
1.376                 -0.1045366       -19.67355
1.38                   -0.105689       -19.76693
1.384                 -0.1068222       -19.86097
1.388                 -0.1079366       -19.95569
1.392                 -0.1090347        -20.0511
1.396                  -0.110116       -20.14724
1.4                   -0.1111839       -20.24412
1.404                 -0.1122393       -20.34176
1.408                 -0.1132836       -20.44019
1.412                 -0.1143196       -20.53942
1.416                 -0.1153487       -20.63949
1.42                  -0.1163733       -20.74039
1.424                 -0.1173948       -20.84217
1.428                 -0.1184171       -20.94483
1.432                 -0.1194429        -21.0484
1.436                 -0.1204739       -21.15288
1.44                  -0.1215126       -21.25831
1.444                 -0.1225626       -21.36469
1.448                  -0.123627       -21.47205
1.452                 -0.1247083       -21.58039
1.456                 -0.1258109       -21.68973
1.46                  -0.1269359       -21.80009
1.464                 -0.1280884       -21.91148
1.468                 -0.1292715       -22.02391
1.472                 -0.1304883       -22.13738
1.476                 -0.1317421       -22.25192
1.48                  -0.1330358       -22.36752
1.484                 -0.1343755       -22.48421
1.488                 -0.1357619       -22.60198
1.492                 -0.1372001       -22.72084
1.496                  -0.138693        -22.8408
1.5                   -0.1402441       -22.96186
1.504                 -0.1418582       -23.08404
1.508                 -0.1435378       -23.20731
1.512                  -0.145286        -23.3317
1.516                 -0.1471078       -23.45721
1.52                  -0.1490055       -23.58382
1.524                  -0.150983       -23.71155
1.528                 -0.1530432       -23.84038
1.532                 -0.1551899       -23.97033
1.536                 -0.1574271       -24.10139
1.54                  -0.1597558       -24.23354
1.544                 -0.1621811       -24.36679
1.548                 -0.1647047       -24.50114
1.552                 -0.1673293       -24.63657
1.556                 -0.1700592       -24.77309
1.56                  -0.1728965       -24.91068
1.564                 -0.1758422       -25.04933
1.568                 -0.1789008       -25.18905
1.572                 -0.1820741       -25.32982
1.576                 -0.1853636       -25.47164
1.58                  -0.1887717       -25.61449
1.584                 -0.1923003       -25.75836
1.588                 -0.1959512       -25.90325
1.592                 -0.1997263       -26.04915
1.596                 -0.2036263       -26.19605
1.6                   -0.2076542       -26.34395
1.604                 -0.2118099       -26.49282
1.608                  -0.216094       -26.64267
1.612                 -0.2205079       -26.79348
1.616                 -0.2250534       -26.94525
1.62                    -0.22973       -27.09796
1.624                 -0.2345376       -27.25162
1.628                 -0.2394786       -27.40621
1.632                 -0.2445524       -27.56173
1.636                 -0.2497571       -27.71817
1.64                  -0.2550954       -27.87553
1.644                 -0.2605653        -28.0338
1.648                 -0.2661663       -28.19297
1.652                 -0.2718995       -28.35305
1.656                 -0.2777629       -28.51404
1.66                   -0.283757       -28.67593
1.664                 -0.2898805       -28.83872
1.668                 -0.2961323       -29.00242
1.672                 -0.3025123       -29.16703
1.676                 -0.3090172       -29.33255
1.68                  -0.3156485       -29.49899
1.684                 -0.3224028       -29.66635
1.688                 -0.3292808       -29.83464
1.692                 -0.3362814       -30.00387
1.696                 -0.3434018       -30.17406
1.7                   -0.3506407       -30.34521
1.704                 -0.3579978       -30.51734
1.708                 -0.3654715       -30.69046
1.712                   -0.37306        -30.8646
1.716                 -0.3807633       -31.03977
1.72                  -0.3885792       -31.21598
1.724                 -0.3965057       -31.39328
1.728                 -0.4045445       -31.57167
1.732                 -0.4126914       -31.75118
1.736                 -0.4209471       -31.93185
1.74                  -0.4293104        -32.1137
1.744                  -0.437781       -32.29676
1.748                 -0.4463585       -32.48107
1.752                  -0.455042       -32.66665
1.756                 -0.4638305       -32.85356
1.76                  -0.4727261       -33.04181
1.764                 -0.4817271       -33.23147
1.768                 -0.4908351       -33.42256
1.772                 -0.5000506       -33.61513
1.776                 -0.5093743       -33.80922
1.78                   -0.518806       -34.00488
1.784                 -0.5283481       -34.20217
1.788                 -0.5380039       -34.40112
1.792                 -0.5477731       -34.60179
1.796                 -0.5576588       -34.80423
1.8                   -0.5676642       -35.00849
1.804                 -0.5777908       -35.21464
1.808                 -0.5880423       -35.42271
1.812                  -0.598423       -35.63278
1.816                 -0.6089369        -35.8449
1.82                  -0.6195884       -36.05913
1.824                 -0.6303811       -36.27553
1.828                 -0.6413219       -36.49415
1.832                 -0.6524144       -36.71506
1.836                 -0.6636656       -36.93833
1.84                  -0.6750838       -37.16401
1.844                 -0.6866738       -37.39217
1.848                 -0.6984418       -37.62287
1.852                 -0.7103969       -37.85617
1.856                 -0.7225474       -38.09214
1.86                  -0.7349021       -38.33084
1.864                 -0.7474693       -38.57234
1.868                 -0.7602585       -38.81669
1.872                 -0.7732817       -39.06397
1.876                 -0.7865468       -39.31422
1.88                  -0.8000661       -39.56752
1.884                 -0.8138492       -39.82393
1.888                 -0.8279112       -40.08352
1.892                 -0.8422599       -40.34632
1.896                 -0.8569123       -40.61243
1.9                   -0.8718802       -40.88187
1.904                 -0.8871759       -41.15472
1.908                 -0.9028147       -41.43104
1.912                 -0.9188122       -41.71088
1.916                 -0.9351797       -41.99428
1.92                  -0.9519371       -42.28133
1.924                 -0.9690976       -42.57203
1.928                 -0.9866785       -42.86648
1.932                  -1.004696        -43.1647
1.936                  -1.023169       -43.46676
1.94                   -1.042113       -43.77268
1.944                  -1.061548       -44.08253
1.948                   -1.08149       -44.39633
1.952                   -1.10196       -44.71414
1.956                  -1.122975       -45.03598
1.96                   -1.144558       -45.36192
1.964                  -1.166725       -45.69195
1.968                    -1.1895       -46.02615
1.972                  -1.212902       -46.36453
1.976                  -1.236952       -46.70711
1.98                   -1.261674       -47.05395
1.984                  -1.287087       -47.40504
1.988                  -1.313213       -47.76043
1.992                  -1.340078       -48.12014
1.996                  -1.367704       -48.48419
2                      -1.396112        -48.8526
2.004                  -1.425329       -49.22537
2.008                  -1.455377       -49.60254
2.012                  -1.486282       -49.98412
2.016                  -1.518067       -50.37011
2.02                   -1.550759       -50.76053
2.024                  -1.584384       -51.15539
2.028                  -1.618968       -51.55468
2.032                  -1.654535       -51.95843
2.036                  -1.691115       -52.36663
2.04                   -1.728734       -52.77928
2.044                  -1.767417       -53.19639
2.048                  -1.807197       -53.61794
2.052                    -1.8481       -54.04396
2.056                  -1.890155       -54.47442
2.06                    -1.93339       -54.90932
2.064                   -1.97784       -55.34866
2.068                   -2.02353       -55.79243
2.072                  -2.070491       -56.24061
2.076                  -2.118759       -56.69321
2.08                   -2.168362       -57.15021
2.084                  -2.219335       -57.61158
2.088                  -2.271709       -58.07735
2.092                  -2.325518       -58.54746
2.096                  -2.380798       -59.02192
2.1                    -2.437582       -59.50071
2.104                  -2.495909       -59.98382
2.108                  -2.555812       -60.47122
2.112                  -2.617332       -60.96291
2.116                  -2.680503       -61.45887
2.12                   -2.745368       -61.95906
2.124                  -2.811964       -62.46348
2.128                  -2.880334       -62.97212
2.132                  -2.950519       -63.48495
2.136                  -3.022565       -64.00197
2.14                   -3.096512       -64.52314
2.144                  -3.172406       -65.04844
2.148                  -3.250297       -65.57788
2.152                  -3.330231       -66.11142
2.156                  -3.412257       -66.64905
2.16                   -3.496428       -67.19078
2.164                  -3.582796       -67.73656
2.168                  -3.671413       -68.28641
2.172                  -3.762339        -68.8403
2.176                  -3.855632       -69.39823
2.18                    -3.95135       -69.96016
2.184                  -4.049558       -70.52614
2.188                  -4.150317       -71.09613
2.192                  -4.253699       -71.67014
2.196                  -4.359773       -72.24818
2.2                     -4.46861       -72.83023
2.204                  -4.580288       -73.41633
2.208                  -4.694886       -74.00647
2.212                  -4.812484       -74.60067
2.216                  -4.933171       -75.19897
2.22                   -5.057037       -75.80134
2.224                  -5.184177       -76.40787
2.228                   -5.31469       -77.01859
2.232                  -5.448679        -77.6335
2.236                  -5.586257       -78.25268
2.24                   -5.727535       -78.87618
2.244                  -5.872637       -79.50408
2.248                   -6.02169       -80.13645
2.252                  -6.174831       -80.77336
2.256                  -6.332201       -81.41493
2.26                   -6.493953       -82.06125
2.264                  -6.660247       -82.71247
2.268                  -6.831254        -83.3687
2.272                  -7.007155       -84.03013
2.276                  -7.188145       -84.69692
2.28                   -7.374429       -85.36929
2.284                  -7.566227       -86.04743
2.288                  -7.763775       -86.73164
2.292                  -7.967329       -87.42217
2.296                  -8.177157       -88.11934
2.3                    -8.393555       -88.82356
2.304                  -8.616838       -89.53518
2.308                  -8.847345        -90.2547
2.312                  -9.085448       -90.98264
2.316                  -9.331548       -91.71956
2.32                    -9.58608       -92.46618
2.324                  -9.849522       -93.22321
2.328                  -10.12239       -93.99155
2.332                  -10.40527        -94.7722
2.336                  -10.69877        -95.5663
2.34                   -11.00359       -96.37515
2.344                  -11.32051       -97.20032
2.348                  -11.65037       -98.04354
2.352                  -11.99412       -98.90689
2.356                  -12.35283       -99.79282
2.36                   -12.72769       -100.7042
2.364                  -13.12005       -101.6443
2.368                  -13.53145       -102.6174
2.372                  -13.96362       -103.6283
2.376                  -14.41858       -104.6829
2.38                   -14.89862       -105.7885
2.384                  -15.40643       -106.9542
2.388                  -15.94512       -108.1912
2.392                  -16.51838       -109.5138
2.396                  -17.13054       -110.9404
2.4                     -17.7868       -112.4949
2.404                   -18.4934       -114.2091