! TOUCHSTONE file generated by CST MICROWAVE STUDIO
! Date and time: Fri May  6 15:38:52 2022
! Project name: ant1_ceramic_sweep_fr4.cst
! Parameters = {e=0.035; h=1.6; i=0.8; l1=0.5; l2=20.96; ls=80; wl=1.7; ws=30}
! Header version: 2018
! Port assignment regex: !\s*Touchstone port\s*([0-9]+)\s*=\s*(CST MWS port|CST DS port)\s*([0-9]+|Zmin|Zmax)\s*\(\"(.*)\"\)(\s*mode\s*([0-9]+))?.*
! Touchstone port assignment:
! Touchstone port 1 = CST MWS port 1 ("")
# GHz S DB R 50
0                     -0.0138559              -0
0.004                -0.01384492     -0.04046636
0.008                -0.01381301     -0.08094117
0.012                -0.01375913      -0.1214328
0.016                 -0.0136843      -0.1619497
0.02                 -0.01358801      -0.2025001
0.024                -0.01347075      -0.2430922
0.028                -0.01333353       -0.283734
0.032                -0.01317738      -0.3244336
0.036                -0.01299915      -0.3651986
0.04                 -0.01280452      -0.4060367
0.044                -0.01259036      -0.4469552
0.048                -0.01235869      -0.4879611
0.052                   -0.01211      -0.5290616
0.056                -0.01184529      -0.5702629
0.06                 -0.01156554      -0.6115716
0.064                -0.01127176      -0.6529937
0.068                -0.01096338      -0.6945346
0.072                -0.01064242      -0.7361998
0.076                -0.01030986      -0.7779945
0.08                -0.009967739       -0.819923
0.084               -0.009615471      -0.8619896
0.088               -0.009255077       -0.904198
0.092                -0.00888702       -0.946552
0.096               -0.008512281      -0.9890541
0.1                 -0.008132875       -1.031707
0.104               -0.007750301       -1.074513
0.108               -0.007364499       -1.117474
0.112               -0.006977486       -1.160591
0.116               -0.006591279       -1.203866
0.12                -0.006204785       -1.247297
0.124               -0.005821058       -1.290886
0.128               -0.005439528       -1.334631
0.132               -0.005063767       -1.378533
0.136               -0.004694764       -1.422589
0.14                -0.004331432       -1.466798
0.144               -0.003976318       -1.511158
0.148               -0.003629895       -1.555666
0.152               -0.003294713       -1.600319
0.156               -0.002970217       -1.645113
0.16                -0.002657925       -1.690046
0.164               -0.002359362       -1.735113
0.168               -0.002075018       -1.780308
0.172               -0.001805903       -1.825629
0.176               -0.001553035       -1.871069
0.18                -0.001315363       -1.916622
0.184               -0.001097534       -1.962284
0.188              -0.0008959189       -2.008049
0.192               -0.000714654       -2.053909
0.196               -0.000552707       -2.099859
0.2                -0.0004100813       -2.145892
0.204              -0.0002893816       -2.192001
0.208              -0.0001885475       -2.238179
0.212              -0.0001096684        -2.28442
0.216              -5.121739e-05       -2.330715
0.22               -1.477538e-05       -2.377057
0.224               1.448388e-07       -2.423439
0.228               -8.56652e-06       -2.469854
0.232              -3.732239e-05       -2.516294
0.236               -8.97935e-05       -2.562751
0.24               -0.0001629236       -2.609218
0.244              -0.0002577937       -2.655688
0.248              -0.0003744614       -2.702154
0.252              -0.0005124697       -2.748607
0.256               -0.000670317       -2.795042
0.26               -0.0008491082       -2.841452
0.264               -0.001046837       -2.887828
0.268               -0.001265119       -2.934165
0.272               -0.001500918       -2.980457
0.276               -0.001753783       -3.026698
0.28                 -0.00202534       -3.072881
0.284               -0.002312035       -3.119001
0.288               -0.002613934       -3.165053
0.292               -0.002930078       -3.211031
0.296               -0.003261566       -3.256932
0.3                 -0.003604324        -3.30275
0.304               -0.003959971       -3.348483
0.308               -0.004324436       -3.394126
0.312               -0.004699841       -3.439677
0.316               -0.005082629       -3.485132
0.32                -0.005473371        -3.53049
0.324               -0.005870051       -3.575748
0.328               -0.006270637       -3.620906
0.332               -0.006674667       -3.665962
0.336               -0.007081147       -3.710914
0.34                -0.007488548       -3.755765
0.344               -0.007896913       -3.800513
0.348               -0.008303149       -3.845159
0.352               -0.008707279       -3.889707
0.356               -0.009107764       -3.934155
0.36                -0.009501502       -3.978507
0.364               -0.009891079       -4.022767
0.368                -0.01027184       -4.066936
0.372                -0.01064429       -4.111017
0.376                -0.01100684       -4.155016
0.38                 -0.01135792       -4.198937
0.384                -0.01169854       -4.242784
0.388                -0.01202503       -4.286563
0.392                -0.01233785       -4.330279
0.396                -0.01263542       -4.373937
0.4                  -0.01291816       -4.417546
0.404                -0.01318291       -4.461111
0.408                -0.01343012       -4.504639
0.412                -0.01365917       -4.548138
0.416                -0.01386948       -4.591615
0.42                 -0.01405887       -4.635077
0.424                 -0.0142293       -4.678534
0.428                -0.01437861       -4.721992
0.432                -0.01450666       -4.765463
0.436                 -0.0146118       -4.808952
0.44                 -0.01469544        -4.85247
0.444                -0.01475746       -4.896025
0.448                -0.01479668       -4.939627
0.452                -0.01481348       -4.983285
0.456                -0.01480773       -5.027006
0.46                 -0.01477873       -5.070802
0.464                -0.01472789       -5.114683
0.468                -0.01465405       -5.158654
0.472                -0.01455857       -5.202727
0.476                -0.01444129       -5.246912
0.48                 -0.01430206       -5.291214
0.484                -0.01414278       -5.335646
0.488                -0.01396224       -5.380214
0.492                -0.01376183       -5.424928
0.496                -0.01354241       -5.469795
0.5                  -0.01330434       -5.514823
0.504                -0.01305003       -5.560022
0.508                -0.01277672       -5.605396
0.512                -0.01248891       -5.650955
0.516                -0.01218488       -5.696705
0.52                  -0.0118681       -5.742652
0.524                -0.01153734       -5.788802
0.528                -0.01119455       -5.835162
0.532                -0.01084163       -5.881736
0.536                -0.01047896        -5.92853
0.54                 -0.01010844       -5.975548
0.544               -0.009729428       -6.022794
0.548               -0.009345926       -6.070272
0.552               -0.008956762       -6.117985
0.556                -0.00856493       -6.165936
0.56                -0.008170283       -6.214127
0.564                -0.00777635       -6.262561
0.568               -0.007382499       -6.311238
0.572               -0.006991224        -6.36016
0.576               -0.006602466       -6.409325
0.58                -0.006219704       -6.458736
0.584               -0.005841345        -6.50839
0.588               -0.005472491       -6.558287
0.592               -0.005111023       -6.608425
0.596               -0.004759468       -6.658803
0.6                 -0.004420376       -6.709418
0.604               -0.004093204       -6.760266
0.608               -0.003780518       -6.811345
0.612               -0.003481779       -6.862651
0.616               -0.003200094       -6.914179
0.62                -0.002934435       -6.965925
0.624               -0.002688459       -7.017883
0.628               -0.002461112       -7.070051
0.632               -0.002254032       -7.122418
0.636               -0.002068257       -7.174983
0.64                -0.001904373       -7.227737
0.644               -0.001762975       -7.280673
0.648                -0.00164464       -7.333784
0.652               -0.001551529       -7.387064
0.656               -0.001482661       -7.440507
0.66                -0.001437638       -7.494102
0.664               -0.001418652       -7.547843
0.668               -0.001427335       -7.601722
0.672               -0.001460189       -7.655731
0.676               -0.001522004       -7.709863
0.68                -0.001608763       -7.764107
0.684               -0.001720594       -7.818457
0.688               -0.001861292       -7.872903
0.692               -0.002028873        -7.92744
0.696               -0.002221958       -7.982057
0.7                 -0.002441244       -8.036745
0.704               -0.002686319       -8.091499
0.708               -0.002957357       -8.146309
0.712               -0.003252912        -8.20117
0.716               -0.003573717       -8.256072
0.72                -0.003917309       -8.311007
0.724               -0.004284377       -8.365969
0.728               -0.004674477       -8.420953
0.732               -0.005085233       -8.475949
0.736               -0.005516265       -8.530952
0.74                -0.005967671       -8.585958
0.744               -0.006437503        -8.64096
0.748               -0.006926455       -8.695952
0.752                -0.00743095       -8.750931
0.756               -0.007951099       -8.805893
0.76                -0.008484963       -8.860831
0.764               -0.009031594       -8.915744
0.768               -0.009590494        -8.97063
0.772                -0.01015869       -9.025482
0.776                 -0.0107372       -9.080304
0.78                 -0.01132299       -9.135092
0.784                -0.01191507       -9.189844
0.788                -0.01251134        -9.24456
0.792                -0.01311178       -9.299243
0.796                -0.01371331        -9.35389
0.8                  -0.01431539       -9.408503
0.804                 -0.0149164       -9.463083
0.808                -0.01551466       -9.517637
0.812                -0.01610968       -9.572162
0.816                -0.01669868       -9.626665
0.82                 -0.01728156       -9.681151
0.824                -0.01785563       -9.735621
0.828                -0.01842122       -9.790083
0.832                 -0.0189746        -9.84454
0.836                -0.01951652       -9.899002
0.84                 -0.02004528       -9.953473
0.844                -0.02055863       -10.00796
0.848                -0.02105682       -10.06247
0.852                -0.02153853       -10.11701
0.856                 -0.0220019        -10.1716
0.86                 -0.02244525       -10.22623
0.864                 -0.0228707       -10.28093
0.868                -0.02327439       -10.33569
0.872                -0.02365603       -10.39053
0.876                -0.02401618       -10.44546
0.88                  -0.0243525        -10.5005
0.884                -0.02466673       -10.55564
0.888                -0.02495629        -10.6109
0.892                -0.02522143        -10.6663
0.896                -0.02546164       -10.72185
0.9                   -0.0256766       -10.77755
0.904                -0.02586786       -10.83343
0.908                -0.02603352       -10.88948
0.912                -0.02617363       -10.94573
0.916                -0.02628872       -11.00218
0.92                  -0.0263784       -11.05886
0.924                -0.02644479       -11.11576
0.928                -0.02648697        -11.1729
0.932                 -0.0265049        -11.2303
0.936                -0.02650022       -11.28797
0.94                 -0.02647297       -11.34592
0.944                -0.02642427       -11.40415
0.948                -0.02635465       -11.46269
0.952                -0.02626427       -11.52153
0.956                 -0.0261567        -11.5807
0.96                 -0.02602997        -11.6402
0.964                -0.02588625       -11.70005
0.968                -0.02572761       -11.76025
0.972                -0.02555528       -11.82081
0.976                 -0.0253693       -11.88174
0.98                 -0.02517186       -11.94305
0.984                -0.02496405       -12.00476
0.988                 -0.0247487       -12.06685
0.992                -0.02452582       -12.12935
0.996                 -0.0242972       -12.19226
1                     -0.0240661       -12.25558
1.004                -0.02383216       -12.31932
1.008                 -0.0235987       -12.38349
1.012                -0.02336489       -12.44809
1.016                -0.02313616       -12.51312
1.02                 -0.02291222       -12.57859
1.024                -0.02269488       -12.64449
1.028                -0.02248594       -12.71084
1.032                 -0.0222884       -12.77763
1.036                -0.02210253       -12.84486
1.04                 -0.02193122       -12.91254
1.044                -0.02177545       -12.98066
1.048                -0.02163764       -13.04923
1.052                 -0.0215191       -13.11822
1.056                -0.02142104       -13.18766
1.06                 -0.02134608        -13.2575
1.064                -0.02129647       -13.32782
1.068                -0.02127179       -13.39855
1.072                -0.02127552        -13.4697
1.076                -0.02130801       -13.54125
1.08                  -0.0213718       -13.61324
1.084                -0.02146711       -13.68564
1.088                -0.02159541       -13.75842
1.092                -0.02175803       -13.83161
1.096                -0.02195586       -13.90519
1.1                  -0.02219186       -13.97912
1.104                -0.02246434       -14.05343
1.108                -0.02277578       -14.12813
1.112                -0.02312645       -14.20312
1.116                -0.02351838        -14.2785
1.12                  -0.0239504       -14.35423
1.124                -0.02442344       -14.43027
1.128                 -0.0249382        -14.5066
1.132                -0.02549699       -14.58327
1.136                 -0.0260961       -14.66022
1.14                 -0.02673926       -14.73747
1.144                -0.02742515         -14.815
1.148                -0.02815268        -14.8928
1.152                -0.02892399       -14.97085
1.156                 -0.0297364       -15.04916
1.16                 -0.03059167       -15.12771
1.164                -0.03148794       -15.20649
1.168                -0.03242556        -15.2855
1.172                -0.03340361       -15.36472
1.176                -0.03442138       -15.44415
1.18                 -0.03547705       -15.52378
1.184                -0.03657192        -15.6036
1.188                -0.03770246        -15.6836
1.192                -0.03886936       -15.76379
1.196                -0.04007023       -15.84415
1.2                  -0.04130478       -15.92467
1.204                -0.04257105       -16.00535
1.208                 -0.0438684       -16.08619
1.212                -0.04519453       -16.16719
1.216                -0.04654837       -16.24833
1.22                 -0.04792835       -16.32963
1.224                 -0.0493331       -16.41106
1.228                 -0.0507592       -16.49264
1.232                -0.05220657       -16.57436
1.236                -0.05367363       -16.65623
1.24                 -0.05515867       -16.73824
1.244                -0.05665847        -16.8204
1.248                -0.05817092       -16.90271
1.252                -0.05969759       -16.98517
1.256                -0.06123179       -17.06778
1.26                 -0.06277564       -17.15056
1.264                -0.06432481        -17.2335
1.268                -0.06587867       -17.31661
1.272                -0.06743473       -17.39991
1.276                -0.06899241        -17.4834
1.28                 -0.07054807       -17.56708
1.284                -0.07210186       -17.65097
1.288                 -0.0736507       -17.73508
1.292                -0.07519329       -17.81942
1.296                -0.07672852         -17.904
1.3                  -0.07825411       -17.98884
1.304                -0.07976999       -18.07395
1.308                -0.08127408       -18.15934
1.312                -0.08276389       -18.24502
1.316                -0.08423956       -18.33103
1.32                 -0.08569947       -18.41736
1.324                -0.08714348       -18.50404
1.328                -0.08856951       -18.59108
1.332                 -0.0899774       -18.67851
1.336                -0.09136595       -18.76634
1.34                 -0.09273642       -18.85459
1.344                -0.09408628       -18.94328
1.348                -0.09541558       -19.03243
1.352                -0.09672554       -19.12206
1.356                -0.09801387       -19.21219
1.36                 -0.09928273       -19.30285
1.364                 -0.1005314       -19.39405
1.368                 -0.1017599       -19.48581
1.372                 -0.1029704       -19.57817
1.376                 -0.1041607       -19.67112
1.38                  -0.1053341       -19.76471
1.384                 -0.1064908       -19.85895
1.388                  -0.107631       -19.95385
1.392                 -0.1087571       -20.04945
1.396                 -0.1098691       -20.14577
1.4                   -0.1109695       -20.24282
1.404                 -0.1120605       -20.34063
1.408                 -0.1131431       -20.43922
1.412                 -0.1142184        -20.5386
1.416                 -0.1152901        -20.6388
1.42                  -0.1163586       -20.73984
1.424                 -0.1174274       -20.84173
1.428                 -0.1184978       -20.94449
1.432                 -0.1195737       -21.04815
1.436                 -0.1206566       -21.15271
1.44                   -0.121749        -21.2582
1.444                 -0.1228547       -21.36463
1.448                 -0.1239757       -21.47202
1.452                 -0.1251159       -21.58038
1.456                 -0.1262776       -21.68972
1.46                  -0.1274641       -21.80006
1.464                 -0.1286782       -21.91141
1.468                 -0.1299235       -22.02378
1.472                 -0.1312039       -22.13719
1.476                 -0.1325218       -22.25163
1.48                  -0.1338807       -22.36713
1.484                 -0.1352861       -22.48369
1.488                  -0.136738       -22.60132
1.492                 -0.1382424       -22.72002
1.496                    -0.1398       -22.83979
1.5                   -0.1414175       -22.96065
1.504                 -0.1430969        -23.0826
1.508                 -0.1448417       -23.20564
1.512                 -0.1466548       -23.32977
1.516                 -0.1485413         -23.455
1.52                  -0.1505023       -23.58132
1.524                 -0.1525424       -23.70873
1.528                 -0.1546642       -23.83724
1.532                 -0.1568713       -23.96684
1.536                 -0.1591664       -24.09752
1.54                  -0.1615536        -24.2293
1.544                 -0.1640351       -24.36216
1.548                 -0.1666143       -24.49609
1.552                 -0.1692936        -24.6311
1.556                 -0.1720738       -24.76718
1.56                  -0.1749606       -24.90431
1.564                 -0.1779545        -25.0425
1.568                 -0.1810596       -25.18174
1.572                 -0.1842768       -25.32202
1.576                 -0.1876085       -25.46334
1.58                  -0.1910567       -25.60568
1.584                 -0.1946222       -25.74903
1.588                 -0.1983088        -25.8934
1.592                 -0.2021168       -26.03877
1.596                 -0.2060484       -26.18513
1.6                   -0.2101052       -26.33247
1.604                 -0.2142859        -26.4808
1.608                 -0.2185953       -26.63009
1.612                 -0.2230307       -26.78035
1.616                 -0.2275953       -26.93155
1.62                  -0.2322891       -27.08371
1.624                 -0.2371131       -27.23681
1.628                 -0.2420659       -27.39083
1.632                 -0.2471498       -27.54579
1.636                 -0.2523636       -27.70167
1.64                  -0.2577082       -27.85848
1.644                  -0.263182       -28.01619
1.648                 -0.2687874       -28.17482
1.652                 -0.2745216       -28.33437
1.656                  -0.280384       -28.49482
1.66                  -0.2863757       -28.65618
1.664                 -0.2924951       -28.81845
1.668                 -0.2987415       -28.98164
1.672                 -0.3051142       -29.14574
1.676                  -0.311613       -29.31077
1.68                  -0.3182346       -29.47671
1.684                 -0.3249809        -29.6436
1.688                 -0.3318485       -29.81142
1.692                 -0.3388372        -29.9802
1.696                 -0.3459475       -30.14994
1.7                   -0.3531753       -30.32066
1.704                 -0.3605206       -30.49236
1.708                 -0.3679827       -30.66507
1.712                 -0.3755612       -30.83881
1.716                 -0.3832542        -31.0136
1.72                  -0.3910592       -31.18944
1.724                 -0.3989771       -31.36636
1.728                 -0.4070062        -31.5444
1.732                 -0.4151465       -31.72357
1.736                  -0.423396        -31.9039
1.74                  -0.4317543       -32.08542
1.744                 -0.4402226       -32.26817
1.748                 -0.4487987       -32.45218
1.752                  -0.457483       -32.63746
1.756                 -0.4662759       -32.82408
1.76                  -0.4751769       -33.01205
1.764                 -0.4841862       -33.20143
1.768                 -0.4933057       -33.39225
1.772                 -0.5025343       -33.58455
1.776                 -0.5118752       -33.77838
1.78                  -0.5213267       -33.97378
1.784                  -0.530893        -34.1708
1.788                 -0.5405747       -34.36949
1.792                 -0.5503733       -34.56989
1.796                 -0.5602933       -34.77206
1.8                   -0.5703358       -34.97606
1.804                 -0.5805034       -35.18192
1.808                 -0.5908008       -35.38972
1.812                 -0.6012315       -35.59949
1.816                 -0.6117989       -35.81131
1.82                   -0.622507       -36.02521
1.824                 -0.6333629       -36.24128
1.828                 -0.6443698       -36.45955
1.832                 -0.6555333        -36.6801
1.836                 -0.6668602       -36.90299
1.84                  -0.6783572       -37.12826
1.844                 -0.6900299       -37.35599
1.848                 -0.7018864       -37.58624
1.852                 -0.7139344       -37.81906
1.856                 -0.7261825       -38.05452
1.86                  -0.7386385       -38.29268
1.864                 -0.7513115       -38.53361
1.868                 -0.7642111       -38.77735
1.872                 -0.7773457       -39.02398
1.876                 -0.7907287       -39.27356
1.88                  -0.8043692       -39.52614
1.884                 -0.8182789       -39.78179
1.888                 -0.8324686       -40.04056
1.892                 -0.8469502       -40.30251
1.896                 -0.8617381       -40.56771
1.9                   -0.8768442       -40.83621
1.904                 -0.8922816       -41.10806
1.908                 -0.9080657       -41.38333
1.912                 -0.9242089       -41.66204
1.916                 -0.9407281       -41.94429
1.92                  -0.9576378       -42.23011
1.924                 -0.9749515       -42.51953
1.928                  -0.992689       -42.81263
1.932                  -1.010863       -43.10944
1.936                  -1.029495       -43.41002
1.94                   -1.048598       -43.71441
1.944                  -1.068193       -44.02264
1.948                  -1.088296       -44.33477
1.952                  -1.108928       -44.65083
1.956                  -1.130105       -44.97085
1.96                   -1.151848       -45.29489
1.964                  -1.174177       -45.62296
1.968                  -1.197111        -45.9551
1.972                  -1.220671       -46.29136
1.976                  -1.244879       -46.63175
1.98                   -1.269756        -46.9763
1.984                  -1.295322       -47.32504
1.988                  -1.321599       -47.67798
1.992                  -1.348612       -48.03516
1.996                  -1.376383        -48.3966
2                      -1.404932        -48.7623
2.004                  -1.434289        -49.1323
2.008                   -1.46447        -49.5066
2.012                  -1.495506       -49.88522
2.016                  -1.527417       -50.26817
2.02                    -1.56023       -50.65545
2.024                  -1.593971       -51.04708
2.028                  -1.628662       -51.44305
2.032                  -1.664335       -51.84339
2.036                  -1.701012       -52.24808
2.04                   -1.738722       -52.65714
2.044                  -1.777492       -53.07055
2.048                  -1.817349       -53.48832
2.052                  -1.858322       -53.91045
2.056                  -1.900439       -54.33692
2.06                   -1.943729       -54.76774
2.064                  -1.988222       -55.20289
2.068                  -2.033948       -55.64236
2.072                  -2.080939       -56.08616
2.076                  -2.129224       -56.53427
2.08                   -2.178834       -56.98667
2.084                  -2.229805       -57.44334
2.088                  -2.282166       -57.90427
2.092                  -2.335951       -58.36947
2.096                  -2.391195       -58.83889
2.1                    -2.447933       -59.31254
2.104                  -2.506201       -59.79038
2.108                  -2.566034       -60.27241
2.112                  -2.627468       -60.75859
2.116                  -2.690543       -61.24891
2.12                   -2.755297       -61.74336
2.124                   -2.82177       -62.24194
2.128                  -2.890001       -62.74457
2.132                  -2.960032       -63.25127
2.136                  -3.031907       -63.76202
2.14                   -3.105669       -64.27679
2.144                  -3.181364       -64.79555
2.148                  -3.259036       -65.31831
2.152                  -3.338734       -65.84503
2.156                  -3.420509       -66.37568
2.16                   -3.504409       -66.91026
2.164                  -3.590486       -67.44875
2.168                  -3.678797       -67.99113
2.172                  -3.769394       -68.53738
2.176                  -3.862337       -69.08748
2.18                   -3.957685       -69.64144
2.184                  -4.055501       -70.19922
2.188                  -4.155846       -70.76082
2.192                   -4.25879       -71.32625
2.196                  -4.364401       -71.89548
2.2                    -4.472752       -72.46852
2.204                  -4.583915       -73.04536
2.208                  -4.697975       -73.62602
2.212                  -4.815005       -74.21048
2.216                  -4.935096       -74.79875
2.22                   -5.058337       -75.39087
2.224                  -5.184819       -75.98682
2.228                  -5.314643       -76.58665
2.232                   -5.44791       -77.19038
2.236                   -5.58473       -77.79802
2.24                   -5.725215       -78.40965
2.244                  -5.869483        -79.0253
2.248                  -6.017665       -79.64501
2.252                  -6.169893       -80.26886
2.256                  -6.326305       -80.89691
2.26                   -6.487055       -81.52925
2.264                  -6.652299       -82.16596
2.268                  -6.822205       -82.80719
2.272                  -6.996952       -83.45301
2.276                  -7.176731        -84.1036
2.28                   -7.361746       -84.75909
2.284                  -7.552213       -85.41967
2.288                  -7.748365       -86.08554
2.292                  -7.950452       -86.75694
2.296                  -8.158738       -87.43411
2.3                    -8.373516       -88.11735
2.304                  -8.595094       -88.80698
2.308                  -8.823808       -89.50337
2.312                  -9.060022       -90.20695
2.316                  -9.304131        -90.9182
2.32                   -9.556562       -91.63765
2.324                  -9.817785       -92.36594
2.328                  -10.08831       -93.10377
2.332                   -10.3687       -93.85193
2.336                  -10.65958       -94.61138
2.34                   -10.96162       -95.38318
2.344                  -11.27558       -96.16858
2.348                  -11.60229         -96.969
2.352                   -11.9427       -97.78616
2.356                  -12.29784       -98.62201
2.36                    -12.6689       -99.47891
2.364                  -13.05719       -100.3596
2.368                  -13.46424       -101.2674
2.372                  -13.89177       -102.2063
2.376                  -14.34174       -103.1811
2.38                   -14.81645       -104.1978
2.384                  -15.31854       -105.2636
2.388                  -15.85112       -106.3877
2.392                  -16.41786       -107.5816
2.396                  -17.02313       -108.8603
2.4                    -17.67217       -110.2429
2.404                  -18.37133       -111.7553