! TOUCHSTONE file generated by CST MICROWAVE STUDIO
! Date and time: Fri May  6 15:38:53 2022
! Project name: ant1_ceramic_sweep_fr4.cst
! Parameters = {e=0.035; h=1.6; i=0.88; l1=0.5; l2=20.96; ls=80; wl=1.7; ws=30}
! Header version: 2018
! Port assignment regex: !\s*Touchstone port\s*([0-9]+)\s*=\s*(CST MWS port|CST DS port)\s*([0-9]+|Zmin|Zmax)\s*\(\"(.*)\"\)(\s*mode\s*([0-9]+))?.*
! Touchstone port assignment:
! Touchstone port 1 = CST MWS port 1 ("")
# GHz S DB R 50
0                  -0.0007041269              -0
0.004              -0.0007046761     -0.04396682
0.008              -0.0007042525      -0.0879345
0.012              -0.0007028556      -0.1319039
0.016              -0.0007035908      -0.1758759
0.02               -0.0007023147      -0.2198513
0.024              -0.0007010966       -0.263831
0.028              -0.0006999343      -0.3078157
0.032              -0.0006998609      -0.3518064
0.036              -0.0006993203      -0.3958037
0.04               -0.0006983091      -0.4398084
0.044              -0.0006973416      -0.4838214
0.048               -0.000696414      -0.5278434
0.052              -0.0006965578      -0.5718749
0.056              -0.0006951793      -0.6159168
0.06                -0.000695381      -0.6599696
0.064              -0.0006961223      -0.7040339
0.068              -0.0006963621      -0.7481104
0.072              -0.0006971312      -0.7921996
0.076              -0.0006989416      -0.8363019
0.08               -0.0007023053       -0.880418
0.084              -0.0007051457      -0.9245482
0.088              -0.0007090098       -0.968693
0.092              -0.0007138924       -1.012853
0.096              -0.0007192695       -1.057027
0.1                -0.0007261699       -1.101218
0.104              -0.0007335531       -1.145423
0.108              -0.0007414116       -1.189645
0.112              -0.0007523301       -1.233883
0.116              -0.0007637119       -1.278138
0.12               -0.0007760697       -1.322409
0.124               -0.000789916       -1.366696
0.128              -0.0008052447          -1.411
0.132              -0.0008210145        -1.45532
0.136               -0.000840326       -1.499657
0.14               -0.0008595512        -1.54401
0.144              -0.0008807537        -1.58838
0.148              -0.0009034126       -1.632765
0.152              -0.0009280398       -1.677167
0.156              -0.0009535955       -1.721585
0.16               -0.0009811101       -1.766019
0.164               -0.001011096       -1.810468
0.168               -0.001041999       -1.854933
0.172               -0.001075364       -1.899413
0.176               -0.001109638       -1.943908
0.18                -0.001145848       -1.988419
0.184               -0.001182957       -2.032944
0.188               -0.001221999       -2.077483
0.192               -0.001262965       -2.122036
0.196               -0.001303785       -2.166604
0.2                  -0.00134756       -2.211186
0.204               -0.001392214       -2.255781
0.208               -0.001437746        -2.30039
0.212               -0.001485185       -2.345013
0.216               -0.001531942       -2.389648
0.22                -0.001581113       -2.434298
0.224               -0.001630627       -2.478962
0.228               -0.001681515       -2.523638
0.232               -0.001732733       -2.568328
0.236                -0.00178376       -2.613032
0.24                -0.001835112        -2.65775
0.244               -0.001886774       -2.702482
0.248               -0.001938747       -2.747228
0.252               -0.001989986       -2.791988
0.256               -0.002042034       -2.836763
0.26                -0.002092811       -2.881555
0.264               -0.002143869       -2.926361
0.268                 -0.0021926       -2.971184
0.272               -0.002242102       -3.016025
0.276               -0.002289774       -3.060883
0.28                -0.002336643        -3.10576
0.284               -0.002382173       -3.150657
0.288               -0.002426352       -3.195573
0.292               -0.002467092        -3.24051
0.296                  -0.002508       -3.285471
0.3                 -0.002545952       -3.330454
0.304               -0.002581964       -3.375462
0.308               -0.002615499       -3.420496
0.312               -0.002647051       -3.465558
0.316               -0.002675048       -3.510647
0.32                -0.002700493       -3.555767
0.324               -0.002723886       -3.600918
0.328               -0.002743129       -3.646103
0.332               -0.002759741       -3.691322
0.336               -0.002773169       -3.736579
0.34                -0.002782369       -3.781872
0.344               -0.002789356       -3.827206
0.348               -0.002791515       -3.872583
0.352               -0.002790367       -3.918003
0.356               -0.002786386        -3.96347
0.36                -0.002777466       -4.008984
0.364               -0.002766155       -4.054549
0.368               -0.002749312       -4.100165
0.372               -0.002729994       -4.145836
0.376               -0.002706077       -4.191564
0.38                -0.002678058        -4.23735
0.384               -0.002646899       -4.283198
0.388               -0.002612052       -4.329108
0.392               -0.002572949       -4.375083
0.396               -0.002529525       -4.421126
0.4                 -0.002483294        -4.46724
0.404               -0.002433694       -4.513425
0.408               -0.002380669       -4.559683
0.412               -0.002323627       -4.606019
0.416               -0.002264605       -4.652434
0.42                -0.002201468       -4.698929
0.424               -0.002135717       -4.745507
0.428               -0.002067816        -4.79217
0.432               -0.001996142        -4.83892
0.436               -0.001923254       -4.885758
0.44                -0.001848552       -4.932687
0.444               -0.001770421        -4.97971
0.448               -0.001691933       -5.026827
0.452               -0.001611459        -5.07404
0.456               -0.001529994        -5.12135
0.46                -0.001447455       -5.168761
0.464               -0.001364841       -5.216273
0.468               -0.001281581       -5.263886
0.472               -0.001198649       -5.311603
0.476               -0.001114417       -5.359426
0.48                -0.001032999       -5.407356
0.484              -0.0009507211        -5.45539
0.488              -0.0008700955       -5.503534
0.492               -0.000791608       -5.551787
0.496              -0.0007146826       -5.600149
0.5                -0.0006397858       -5.648622
0.504              -0.0005684205       -5.697206
0.508              -0.0004979742       -5.745899
0.512              -0.0004325251       -5.794705
0.516              -0.0003689261       -5.843622
0.52               -0.0003102503       -5.892651
0.524              -0.0002548891       -5.941791
0.528              -0.0002054272       -5.991042
0.532               -0.000159714       -6.040406
0.536              -0.0001198128       -6.089879
0.54               -8.414954e-05       -6.139462
0.544              -5.525464e-05       -6.189156
0.548               -3.10608e-05       -6.238956
0.552               -1.51419e-05       -6.288867
0.556              -4.381481e-06       -6.338883
0.56               -2.951908e-07       -6.389006
0.564              -3.398512e-06       -6.439234
0.568              -1.418602e-05       -6.489566
0.572              -3.160959e-05           -6.54
0.576              -5.565809e-05       -6.590535
0.58               -8.992845e-05       -6.641171
0.584              -0.0001308259       -6.691903
0.588              -0.0001798467       -6.742733
0.592              -0.0002364986       -6.793658
0.596               -0.000301795       -6.844677
0.6                -0.0003762742       -6.895787
0.604              -0.0004583576       -6.946988
0.608              -0.0005480483       -6.998277
0.612              -0.0006474456       -7.049652
0.616              -0.0007549735       -7.101112
0.62               -0.0008711438       -7.152656
0.624              -0.0009959877        -7.20428
0.628                -0.00112794       -7.255984
0.632               -0.001269081       -7.307766
0.636               -0.001417855       -7.359624
0.64                -0.001575292       -7.411558
0.644               -0.001739358       -7.463563
0.648               -0.001911582        -7.51564
0.652               -0.002090976       -7.567786
0.656               -0.002278009           -7.62
0.66                -0.002472157       -7.672283
0.664               -0.002673463       -7.724632
0.668               -0.002880891       -7.777043
0.672               -0.003093354        -7.82952
0.676               -0.003312437       -7.882058
0.68                -0.003537107       -7.934658
0.684               -0.003765764        -7.98732
0.688               -0.004000508       -8.040041
0.692               -0.004239226       -8.092823
0.696               -0.004481894       -8.145664
0.7                 -0.004727957       -8.198566
0.704               -0.004977427       -8.251528
0.708               -0.005229238       -8.304548
0.712               -0.005483819        -8.35763
0.716               -0.005738661       -8.410769
0.72                -0.005995617       -8.463974
0.724               -0.006253771       -8.517238
0.728               -0.006511938       -8.570566
0.732                -0.00676956       -8.623959
0.736               -0.007028107       -8.677419
0.74                 -0.00728444       -8.730946
0.744               -0.007539024       -8.784541
0.748               -0.007792221       -8.838209
0.752               -0.008042959       -8.891951
0.756               -0.008291144       -8.945768
0.76                 -0.00853513       -8.999663
0.764               -0.008775804       -9.053641
0.768               -0.009011514       -9.107703
0.772               -0.009243248       -9.161851
0.776               -0.009469738       -9.216092
0.78                -0.009690903       -9.270428
0.784               -0.009906148        -9.32486
0.788                -0.01011471       -9.379394
0.792                -0.01031703       -9.434034
0.796                -0.01051241       -9.488784
0.8                  -0.01070065        -9.54365
0.804                -0.01088219       -9.598633
0.808                -0.01105571       -9.653742
0.812                -0.01122165       -9.708977
0.816                -0.01137871       -9.764346
0.82                 -0.01152781       -9.819852
0.824                -0.01166865       -9.875504
0.828                -0.01180118         -9.9313
0.832                -0.01192556       -9.987252
0.836                -0.01204058       -10.04336
0.84                 -0.01214766       -10.09964
0.844                -0.01224597       -10.15608
0.848                -0.01233587        -10.2127
0.852                -0.01241654        -10.2695
0.856                 -0.0124904       -10.32649
0.86                 -0.01255414       -10.38367
0.864                -0.01261156       -10.44105
0.868                -0.01266094       -10.49863
0.872                -0.01270304       -10.55641
0.876                -0.01273766       -10.61441
0.88                  -0.0127666       -10.67264
0.884                -0.01278808       -10.73108
0.888                -0.01280389       -10.78976
0.892                -0.01281382       -10.84867
0.896                -0.01281918       -10.90781
0.9                  -0.01281967       -10.96721
0.904                -0.01281615       -11.02685
0.908                -0.01280891       -11.08675
0.912                -0.01279917       -11.14691
0.916                -0.01278624       -11.20733
0.92                 -0.01277247       -11.26802
0.924                -0.01275815       -11.32898
0.928                -0.01274301       -11.39022
0.932                -0.01272794       -11.45173
0.936                -0.01271368       -11.51353
0.94                 -0.01270163       -11.57561
0.944                -0.01269305       -11.63798
0.948                -0.01268731       -11.70064
0.952                -0.01268572        -11.7636
0.956                -0.01268969       -11.82685
0.96                 -0.01269842        -11.8904
0.964                -0.01271541       -11.95426
0.968                -0.01273896       -12.01841
0.972                -0.01277094       -12.08287
0.976                -0.01281166       -12.14763
0.98                 -0.01286319        -12.2127
0.984                -0.01292422       -12.27807
0.988                -0.01299777       -12.34374
0.992                -0.01308469       -12.40973
0.996                -0.01318393       -12.47602
1                    -0.01329734       -12.54262
1.004                -0.01342499       -12.60952
1.008                -0.01356917       -12.67673
1.012                -0.01372941       -12.74423
1.016                -0.01390614       -12.81204
1.02                 -0.01410178       -12.88016
1.024                -0.01431484       -12.94856
1.028                -0.01454785       -13.01727
1.032                -0.01479917       -13.08627
1.036                -0.01507179       -13.15556
1.04                 -0.01536585       -13.22514
1.044                -0.01567946       -13.29501
1.048                -0.01601623       -13.36514
1.052                -0.01637414       -13.43557
1.056                -0.01675616       -13.50628
1.06                 -0.01716001       -13.57729
1.064                -0.01758768       -13.64854
1.068                -0.01803901       -13.72004
1.072                -0.01851401       -13.79184
1.076                -0.01901294       -13.86385
1.08                 -0.01953691        -13.9362
1.084                -0.02008507       -14.00874
1.088                -0.02065642       -14.08154
1.092                -0.02125286        -14.1546
1.096                -0.02187436       -14.22788
1.1                  -0.02251868       -14.30142
1.104                -0.02318886       -14.37519
1.108                -0.02388164        -14.4492
1.112                  -0.024597        -14.5234
1.116                -0.02533728       -14.59788
1.12                   -0.026101       -14.67255
1.124                -0.02688687       -14.74746
1.128                -0.02769562       -14.82258
1.132                -0.02852426       -14.89791
1.136                -0.02937608       -14.97346
1.14                 -0.03024839       -15.04922
1.144                -0.03114028       -15.12518
1.148                -0.03205092       -15.20136
1.152                -0.03298204       -15.27775
1.156                -0.03393046       -15.35433
1.16                 -0.03489641       -15.43113
1.164                 -0.0358783       -15.50813
1.168                 -0.0368777       -15.58534
1.172                -0.03789022       -15.66275
1.176                -0.03891888       -15.74037
1.18                 -0.03995873       -15.81819
1.184                -0.04101284       -15.89623
1.188                -0.04207717       -15.97447
1.192                 -0.0431536       -16.05294
1.196                -0.04423801       -16.13161
1.2                   -0.0453319       -16.21051
1.204                -0.04643401       -16.28963
1.208                 -0.0475424       -16.36898
1.212                -0.04865688       -16.44857
1.216                -0.04977685       -16.52839
1.22                 -0.05089954       -16.60845
1.224                -0.05202648       -16.68876
1.228                -0.05315582       -16.76933
1.232                -0.05428644       -16.85016
1.236                -0.05541723       -16.93125
1.24                 -0.05654721       -17.01263
1.244                -0.05767699       -17.09429
1.248                -0.05880385       -17.17624
1.252                -0.05992872        -17.2585
1.256                -0.06105085       -17.34107
1.26                 -0.06216867       -17.42396
1.264                -0.06328157       -17.50718
1.268                -0.06439029       -17.59075
1.272                -0.06549312       -17.67466
1.276                -0.06658921       -17.75895
1.28                 -0.06767907       -17.84361
1.284                -0.06876206       -17.92866
1.288                -0.06983752       -18.01411
1.292                -0.07090717       -18.09997
1.296                -0.07196926       -18.18626
1.3                  -0.07302277       -18.27299
1.304                -0.07406979       -18.36017
1.308                -0.07510903       -18.44782
1.312                -0.07614164       -18.53595
1.316                -0.07716713       -18.62457
1.32                 -0.07818546        -18.7137
1.324                -0.07919843       -18.80336
1.328                -0.08020556       -18.89355
1.332                -0.08120654       -18.98429
1.336                -0.08220392       -19.07559
1.34                 -0.08319745       -19.16748
1.344                -0.08418709       -19.25996
1.348                 -0.0851755       -19.35305
1.352                -0.08616273       -19.44676
1.356                -0.08714942        -19.5411
1.36                  -0.0881377        -19.6361
1.364                -0.08912699       -19.73176
1.368                -0.09012108        -19.8281
1.372                -0.09111971       -19.92513
1.376                -0.09212541       -20.02287
1.38                 -0.09313794       -20.12133
1.384                -0.09416034       -20.22051
1.388                -0.09519428       -20.32044
1.392                -0.09624047       -20.42113
1.396                -0.09730233       -20.52258
1.4                  -0.09837999       -20.62481
1.404                -0.09947595       -20.72784
1.408                 -0.1005922       -20.83166
1.412                 -0.1017319        -20.9363
1.416                 -0.1028955       -21.04176
1.42                  -0.1040857       -21.14805
1.424                 -0.1053044       -21.25518
1.428                 -0.1065556       -21.36316
1.432                 -0.1078384       -21.47199
1.436                 -0.1091574       -21.58169
1.44                  -0.1105148       -21.69227
1.444                  -0.111912       -21.80372
1.448                 -0.1133518       -21.91606
1.452                 -0.1148359       -22.02928
1.456                 -0.1163676        -22.1434
1.46                  -0.1179488       -22.25843
1.464                 -0.1195816       -22.37436
1.468                 -0.1212695       -22.49119
1.472                 -0.1230143       -22.60894
1.476                 -0.1248171        -22.7276
1.48                  -0.1266815       -22.84718
1.484                 -0.1286098       -22.96767
1.488                 -0.1306034       -23.08909
1.492                 -0.1326652       -23.21142
1.496                 -0.1347975       -23.33468
1.5                    -0.137002       -23.45885
1.504                 -0.1392812       -23.58395
1.508                 -0.1416365       -23.70996
1.512                 -0.1440704       -23.83689
1.516                 -0.1465856       -23.96474
1.52                  -0.1491831       -24.09351
1.524                 -0.1518648       -24.22318
1.528                 -0.1546316       -24.35377
1.532                 -0.1574869       -24.48526
1.536                 -0.1604324       -24.61766
1.54                  -0.1634671       -24.75096
1.544                 -0.1665942       -24.88515
1.548                 -0.1698158       -25.02025
1.552                 -0.1731321       -25.15624
1.556                 -0.1765437       -25.29311
1.56                  -0.1800539       -25.43087
1.564                 -0.1836626       -25.56951
1.568                 -0.1873698       -25.70903
1.572                 -0.1911779       -25.84943
1.576                 -0.1950861       -25.99071
1.58                  -0.1990972       -26.13285
1.584                 -0.2032101       -26.27587
1.588                 -0.2074263       -26.41975
1.592                 -0.2117445        -26.5645
1.596                 -0.2161674        -26.7101
1.6                   -0.2206946       -26.85658
1.604                 -0.2253238       -27.00392
1.608                 -0.2300587       -27.15211
1.612                 -0.2348971       -27.30118
1.616                 -0.2398406       -27.45111
1.62                  -0.2448861        -27.6019
1.624                 -0.2500376       -27.75357
1.628                 -0.2552917        -27.9061
1.632                 -0.2606494       -28.05952
1.636                 -0.2661107       -28.21382
1.64                  -0.2716728         -28.369
1.644                 -0.2773385       -28.52509
1.648                 -0.2831048       -28.68207
1.652                 -0.2889724       -28.83996
1.656                  -0.294941       -28.99877
1.66                  -0.3010097       -29.15852
1.664                 -0.3071776       -29.31921
1.668                  -0.313444       -29.48085
1.672                 -0.3198093       -29.64347
1.676                 -0.3262719       -29.80706
1.68                  -0.3328318       -29.97166
1.684                 -0.3394884       -30.13727
1.688                 -0.3462409       -30.30392
1.692                 -0.3530896       -30.47163
1.696                 -0.3600336       -30.64041
1.7                   -0.3670733       -30.81029
1.704                 -0.3742068        -30.9813
1.708                 -0.3814359       -31.15345
1.712                 -0.3887598       -31.32678
1.716                  -0.396178       -31.50131
1.72                  -0.4036917       -31.67706
1.724                 -0.4113003       -31.85407
1.728                 -0.4190044       -32.03238
1.732                 -0.4268047       -32.21201
1.736                 -0.4347026       -32.39299
1.74                  -0.4426989       -32.57536
1.744                 -0.4507916       -32.75916
1.748                  -0.458986       -32.94442
1.752                 -0.4672816       -33.13119
1.756                 -0.4756816        -33.3195
1.76                   -0.484185       -33.50938
1.764                 -0.4927967        -33.7009
1.768                 -0.5015186       -33.89408
1.772                 -0.5103502       -34.08896
1.776                 -0.5192979       -34.28561
1.78                  -0.5283637       -34.48405
1.784                 -0.5375509       -34.68433
1.788                 -0.5468616       -34.88651
1.792                 -0.5563012       -35.09063
1.796                 -0.5658751       -35.29673
1.8                    -0.575586       -35.50489
1.804                 -0.5854392       -35.71512
1.808                 -0.5954388       -35.92749
1.812                 -0.6055918       -36.14205
1.816                 -0.6159028       -36.35885
1.82                  -0.6263783       -36.57794
1.824                 -0.6370252       -36.79937
1.828                 -0.6478493        -37.0232
1.832                 -0.6588588       -37.24948
1.836                 -0.6700607       -37.47825
1.84                  -0.6814614       -37.70958
1.844                 -0.6930718        -37.9435
1.848                 -0.7048969       -38.18009
1.852                 -0.7169505       -38.41938
1.856                 -0.7292373       -38.66143
1.86                  -0.7417684       -38.90629
1.864                 -0.7545542       -39.15401
1.868                 -0.7676056       -39.40465
1.872                 -0.7809315       -39.65824
1.876                  -0.794543       -39.91484
1.88                  -0.8084549       -40.17451
1.884                 -0.8226749       -40.43728
1.888                 -0.8372169       -40.70321
1.892                 -0.8520935       -40.97233
1.896                 -0.8673176        -41.2447
1.9                   -0.8829034       -41.52037
1.904                 -0.8988619       -41.79937
1.908                 -0.9152079       -42.08174
1.912                 -0.9319573       -42.36754
1.916                 -0.9491249       -42.65679
1.92                  -0.9667226       -42.94955
1.924                  -0.984768       -43.24583
1.928                  -1.003277       -43.54569
1.932                  -1.022267       -43.84916
1.936                  -1.041751       -44.15628
1.94                   -1.061748       -44.46708
1.944                  -1.082273       -44.78157
1.948                  -1.103345       -45.09981
1.952                  -1.124983       -45.42181
1.956                  -1.147203       -45.74761
1.96                   -1.170022       -46.07723
1.964                  -1.193463        -46.4107
1.968                  -1.217542       -46.74804
1.972                   -1.24228       -47.08927
1.976                  -1.267694        -47.4344
1.98                   -1.293806       -47.78346
1.984                  -1.320636       -48.13648
1.988                  -1.348206       -48.49346
1.992                  -1.376534       -48.85441
1.996                  -1.405644       -49.21936
2                      -1.435556        -49.5883
2.004                  -1.466292       -49.96125
2.008                  -1.497875       -50.33823
2.012                  -1.530328       -50.71923
2.016                  -1.563673       -51.10427
2.02                   -1.597934       -51.49335
2.024                  -1.633132       -51.88647
2.028                  -1.669297       -52.28363
2.032                  -1.706449       -52.68485
2.036                  -1.744612        -53.0901
2.04                   -1.783814        -53.4994
2.044                  -1.824079       -53.91274
2.048                  -1.865433        -54.3301
2.052                  -1.907904       -54.75151
2.056                  -1.951517       -55.17694
2.06                   -1.996299       -55.60638
2.064                  -2.042281       -56.03985
2.068                  -2.089488        -56.4773
2.072                   -2.13795       -56.91875
2.076                  -2.187696       -57.36417
2.08                   -2.238756       -57.81357
2.084                  -2.291163       -58.26693
2.088                  -2.344943       -58.72423
2.092                  -2.400131       -59.18545
2.096                  -2.456759       -59.65059
2.1                     -2.51486       -60.11963
2.104                  -2.574467       -60.59257
2.108                  -2.635615       -61.06936
2.112                  -2.698339       -61.55001
2.116                  -2.762677       -62.03452
2.12                   -2.828665       -62.52282
2.124                  -2.896339       -63.01495
2.128                  -2.965739       -63.51085
2.132                  -3.036907       -64.01052
2.136                  -3.109882       -64.51396
2.14                   -3.184707       -65.02114
2.144                  -3.261424       -65.53203
2.148                   -3.34008       -66.04663
2.152                  -3.420719       -66.56493
2.156                  -3.503391       -67.08689
2.16                   -3.588144       -67.61254
2.164                  -3.675026       -68.14181
2.168                  -3.764092       -68.67475
2.172                  -3.855396        -69.2113
2.176                  -3.948993       -69.75146
2.18                   -4.044941       -70.29525
2.184                    -4.1433       -70.84262
2.188                  -4.244136        -71.3936
2.192                  -4.347507       -71.94816
2.196                  -4.453489       -72.50632
2.2                    -4.562145       -73.06806
2.204                  -4.673553       -73.63341
2.208                  -4.787787       -74.20237
2.212                  -4.904927       -74.77492
2.216                  -5.025058       -75.35111
2.22                   -5.148264       -75.93092
2.224                   -5.27464       -76.51441
2.228                   -5.40428       -77.10159
2.232                  -5.537283       -77.69246
2.236                  -5.673757       -78.28709
2.24                   -5.813815       -78.88552
2.244                   -5.95757       -79.48781
2.248                  -6.105146       -80.09398
2.252                  -6.256676        -80.7041
2.256                  -6.412295       -81.31827
2.26                   -6.572149       -81.93656
2.264                  -6.736396       -82.55905
2.268                  -6.905196       -83.18587
2.272                  -7.078727       -83.81714
2.276                  -7.257171       -84.45298
2.28                    -7.44073       -85.09354
2.284                  -7.629612       -85.73899
2.288                  -7.824047       -86.38957
2.292                  -8.024274       -87.04544
2.296                  -8.230554       -87.70688
2.3                    -8.443167       -88.37416
2.304                  -8.662418       -89.04758
2.308                  -8.888628       -89.72751
2.312                  -9.122152       -90.41434
2.316                  -9.363372       -91.10853
2.32                   -9.612703       -91.81058
2.324                  -9.870597        -92.5211
2.328                  -10.13755        -93.2407
2.332                   -10.4141        -93.9702
2.336                  -10.70085       -94.71045
2.34                   -10.99845       -95.46242
2.344                  -11.30763       -96.22732
2.348                  -11.62919       -97.00644
2.352                  -11.96403       -97.80138
2.356                  -12.31315       -98.61395
2.36                   -12.67767       -99.44631
2.364                  -13.05887        -100.301
2.368                  -13.45817        -101.181
2.372                  -13.87723       -102.0901
2.376                  -14.31791       -103.0325
2.38                   -14.78237       -104.0137
2.384                  -15.27312       -105.0402
2.388                  -15.79309       -106.1204
2.392                  -16.34573       -107.2644
2.396                  -16.93512       -108.4857
2.4                    -17.56616       -109.8011
2.404                  -18.24478       -111.2334