! TOUCHSTONE file generated by CST MICROWAVE STUDIO
! Date and time: Fri May  6 15:38:55 2022
! Project name: ant1_ceramic_sweep_fr4.cst
! Parameters = {e=0.035; h=1.6; i=0.8; l1=0.505; l2=20.96; ls=80; wl=1.7; ws=30}
! Header version: 2018
! Port assignment regex: !\s*Touchstone port\s*([0-9]+)\s*=\s*(CST MWS port|CST DS port)\s*([0-9]+|Zmin|Zmax)\s*\(\"(.*)\"\)(\s*mode\s*([0-9]+))?.*
! Touchstone port assignment:
! Touchstone port 1 = CST MWS port 1 ("")
# GHz S DB R 50
0                    -0.01448388              -0
0.004                -0.01447342      -0.0403815
0.008                -0.01443947     -0.08077178
0.012                -0.01438303      -0.1211796
0.016                -0.01430516      -0.1616137
0.02                 -0.01420427      -0.2020826
0.024                -0.01408243       -0.242595
0.028                -0.01393858      -0.2831592
0.032                -0.01377528      -0.3237835
0.036                -0.01358941      -0.3644758
0.04                 -0.01338559      -0.4052442
0.044                -0.01316328      -0.4460963
0.048                -0.01292089      -0.4870394
0.052                -0.01266148      -0.5280808
0.056                -0.01238502      -0.5692274
0.06                 -0.01209301      -0.6104856
0.064                -0.01178594      -0.6518617
0.068                -0.01146322      -0.6933616
0.072                -0.01112897      -0.7349908
0.076                 -0.0107826      -0.7767547
0.08                 -0.01042458      -0.8186578
0.084                -0.01005642      -0.8607046
0.088                 -0.0096796      -0.9028991
0.092                -0.00929511      -0.9452447
0.096               -0.008903924      -0.9877447
0.1                 -0.008508576       -1.030402
0.104               -0.008108487       -1.073218
0.108               -0.007706189       -1.116195
0.112               -0.007301105       -1.159335
0.116                -0.00689732       -1.202638
0.12                -0.006493224       -1.246104
0.124               -0.006092903       -1.289734
0.128               -0.005695785       -1.333527
0.132                -0.00530285       -1.377483
0.136               -0.004916122       -1.421598
0.14                -0.004536066       -1.465873
0.144               -0.004165226       -1.510304
0.148               -0.003803037        -1.55489
0.152               -0.003452567       -1.599626
0.156               -0.003114294       -1.644509
0.16                -0.002787147       -1.689535
0.164               -0.002475755         -1.7347
0.168               -0.002177501           -1.78
0.172               -0.001895984       -1.825428
0.176               -0.001630666       -1.870981
0.18                -0.001383084       -1.916651
0.184               -0.001154264       -1.962434
0.188              -0.0009431615       -2.008323
0.192              -0.0007539142       -2.054311
0.196              -0.0005829026       -2.100392
0.2                -0.0004337543       -2.146559
0.204              -0.0003075194       -2.192804
0.208              -0.0002011042       -2.239121
0.212              -0.0001160837       -2.285501
0.216              -5.507419e-05       -2.331937
0.22               -1.602948e-05       -2.378422
0.224              -5.376786e-07       -2.424947
0.228              -7.606121e-06       -2.471506
0.232               -3.77898e-05        -2.51809
0.236              -9.062022e-05       -2.564691
0.24                -0.000166149       -2.611301
0.244              -0.0002644257       -2.657914
0.248              -0.0003849961        -2.70452
0.252              -0.0005284334       -2.751113
0.256               -0.000691179       -2.797686
0.26               -0.0008769215        -2.84423
0.264               -0.001082624        -2.89074
0.268               -0.001308359       -2.937207
0.272               -0.001553159       -2.983625
0.276               -0.001817099       -3.029989
0.28                -0.002098694       -3.076291
0.284               -0.002397508       -3.122527
0.288               -0.002713091        -3.16869
0.292               -0.003042412       -3.214776
0.296               -0.003386065       -3.260778
0.3                  -0.00374412       -3.306694
0.304               -0.004112499       -3.352519
0.308               -0.004493869       -3.398249
0.312               -0.004883628        -3.44388
0.316               -0.005283395       -3.489411
0.32                -0.005689088       -3.534838
0.324               -0.006102315        -3.58016
0.328               -0.006521055       -3.625375
0.332               -0.006942768       -3.670482
0.336               -0.007366468       -3.715479
0.34                -0.007791144       -3.760369
0.344               -0.008216844        -3.80515
0.348               -0.008639957       -3.849823
0.352               -0.009062587        -3.89439
0.356               -0.009479044       -3.938852
0.36                -0.009890892       -3.983212
0.364                -0.01029658       -4.027473
0.368                -0.01069507       -4.071637
0.372                -0.01108376       -4.115707
0.376                -0.01146159        -4.15969
0.38                 -0.01183009       -4.203589
0.384                -0.01218458       -4.247407
0.388                -0.01252603       -4.291153
0.392                -0.01285285        -4.33483
0.396                -0.01316447       -4.378446
0.4                  -0.01345927       -4.422007
0.404                -0.01373667       -4.465519
0.408                -0.01399502        -4.50899
0.412                -0.01423478       -4.552427
0.416                 -0.0144548       -4.595838
0.42                 -0.01465447       -4.639233
0.424                -0.01483265       -4.682618
0.428                -0.01498923       -4.726003
0.432                -0.01512408       -4.769396
0.436                -0.01523555       -4.812806
0.44                   -0.015324       -4.856243
0.444                 -0.0153893       -4.899716
0.448                -0.01543186       -4.943234
0.452                -0.01545044       -4.986807
0.456                -0.01544442       -5.030443
0.46                 -0.01541569       -5.074154
0.464                -0.01536358       -5.117949
0.468                -0.01528794       -5.161836
0.472                -0.01518963       -5.205826
0.476                 -0.0150685       -5.249927
0.48                 -0.01492435        -5.29415
0.484                -0.01475807       -5.338502
0.488                -0.01457205       -5.382995
0.492                -0.01436459       -5.427634
0.496                -0.01413652       -5.472431
0.5                  -0.01388978       -5.517392
0.504                -0.01362312       -5.562526
0.508                   -0.01334       -5.607841
0.512                -0.01303974       -5.653343
0.516                -0.01272424       -5.699042
0.52                 -0.01239332       -5.744941
0.524                 -0.0120489       -5.791049
0.528                -0.01169183       -5.837372
0.532                -0.01132456       -5.883915
0.536                -0.01094586       -5.930684
0.54                 -0.01055875       -5.977681
0.544                -0.01016459       -6.024913
0.548               -0.009762754       -6.072382
0.552                -0.00935772       -6.120094
0.556               -0.008948355       -6.168049
0.56                -0.008536592       -6.216252
0.564               -0.008124404       -6.264702
0.568                -0.00771321       -6.313403
0.572                -0.00730345       -6.362354
0.576               -0.006897069       -6.411558
0.58                -0.006496087       -6.461012
0.584                -0.00609991       -6.510715
0.588               -0.005713093       -6.560669
0.592               -0.005334556       -6.610871
0.596               -0.004966348       -6.661317
0.6                 -0.004609949       -6.712007
0.604               -0.004267401       -6.762937
0.608               -0.003937129       -6.814103
0.612               -0.003623274       -6.865503
0.616               -0.003326354        -6.91713
0.62                 -0.00304635       -6.968981
0.624                -0.00278589        -7.02105
0.628               -0.002546051       -7.073331
0.632               -0.002325282       -7.125819
0.636               -0.002127798       -7.178508
0.64                 -0.00195314       -7.231389
0.644               -0.001800817       -7.284459
0.648               -0.001673539       -7.337707
0.652               -0.001571362       -7.391128
0.656               -0.001494413       -7.444713
0.66                -0.001443254       -7.498455
0.664                -0.00141908       -7.552345
0.668               -0.001420957       -7.606374
0.672               -0.001450571       -7.660535
0.676               -0.001508535        -7.71482
0.68                -0.001592919       -7.769221
0.684                -0.00170546       -7.823727
0.688               -0.001845777       -7.878329
0.692               -0.002013974       -7.933023
0.696               -0.002208178       -7.987795
0.7                 -0.002430607        -8.04264
0.704               -0.002680901       -8.097549
0.708               -0.002955594       -8.152512
0.712               -0.003257432       -8.207523
0.716               -0.003583982       -8.262574
0.72                -0.003935951       -8.317656
0.724               -0.004311373       -8.372763
0.728               -0.004710487       -8.427885
0.732               -0.005132305        -8.48302
0.736                -0.00557548       -8.538159
0.74                -0.006038064       -8.593294
0.744               -0.006521755       -8.648423
0.748               -0.007023072       -8.703537
0.752               -0.007541082       -8.758632
0.756               -0.008076428       -8.813704
0.76                -0.008626072        -8.86875
0.764               -0.009188064       -8.923764
0.768               -0.009764077       -8.978743
0.772                -0.01034993       -9.033687
0.776                -0.01094527       -9.088591
0.78                 -0.01154903       -9.143456
0.784                -0.01215819       -9.198278
0.788                -0.01277322        -9.25306
0.792                -0.01339161       -9.307799
0.796                -0.01401175       -9.362496
0.8                  -0.01463305       -9.417155
0.804                -0.01525293       -9.471776
0.808                -0.01587029       -9.526359
0.812                 -0.0164835        -9.58091
0.816                -0.01709187       -9.635433
0.82                 -0.01769282       -9.689928
0.824                -0.01828504       -9.744405
0.828                -0.01886848       -9.798865
0.832                -0.01943982       -9.853316
0.836                 -0.0199994       -9.907764
0.84                 -0.02054343       -9.962213
0.844                -0.02107367       -10.01668
0.848                -0.02158786       -10.07116
0.852                -0.02208367       -10.12566
0.856                -0.02256136       -10.18021
0.86                 -0.02301957        -10.2348
0.864                -0.02345646       -10.28944
0.868                -0.02387325       -10.34415
0.872                -0.02426594       -10.39893
0.876                -0.02463582        -10.4538
0.88                 -0.02498353       -10.50876
0.884                  -0.025306       -10.56383
0.888                -0.02560302       -10.61903
0.892                  -0.025874       -10.67435
0.896                -0.02612072       -10.72982
0.9                  -0.02634163       -10.78544
0.904                -0.02653584       -10.84123
0.908                -0.02670394       -10.89721
0.912                -0.02684651       -10.95337
0.916                -0.02696102       -11.00974
0.92                 -0.02705162       -11.06633
0.924                -0.02711633       -11.12315
0.928                -0.02715571       -11.18022
0.932                -0.02717032       -11.23754
0.936                -0.02716123       -11.29512
0.94                 -0.02712848       -11.35299
0.944                -0.02707315       -11.41115
0.948                 -0.0269953       -11.46961
0.952                -0.02689809       -11.52839
0.956                -0.02677997       -11.58749
0.96                 -0.02664309       -11.64693
0.964                -0.02648903       -11.70672
0.968                 -0.0263179       -11.76687
0.972                -0.02613243       -11.82738
0.976                -0.02593254       -11.88827
0.98                 -0.02572101       -11.94955
0.984                -0.02549844       -12.01121
0.988                -0.02526704       -12.07328
0.992                -0.02502801       -12.13576
0.996                -0.02478348       -12.19865
1                    -0.02453364       -12.26197
1.004                -0.02428182       -12.32571
1.008                -0.02403015       -12.38988
1.012                -0.02377947       -12.45449
1.016                -0.02353156       -12.51954
1.02                 -0.02328762       -12.58504
1.024                -0.02305211       -12.65098
1.028                -0.02282322       -12.71736
1.032                -0.02260642        -12.7842
1.036                -0.02240157       -12.85149
1.04                 -0.02221048       -12.91923
1.044                -0.02203512       -12.98742
1.048                -0.02187873       -13.05606
1.052                -0.02174119       -13.12513
1.056                -0.02162571       -13.19469
1.06                  -0.0215328       -13.26463
1.064                -0.02146519       -13.33506
1.068                -0.02142393       -13.40588
1.072                -0.02141122       -13.47716
1.076                -0.02142734       -13.54887
1.08                 -0.02147545       -13.62094
1.084                -0.02155528       -13.69348
1.088                -0.02166953       -13.76643
1.092                -0.02181915       -13.83976
1.096                 -0.0220049       -13.91347
1.1                  -0.02222885       -13.98756
1.104                -0.02249132       -14.06204
1.108                -0.02279215       -14.13687
1.112                -0.02313483       -14.21206
1.116                -0.02351761       -14.28763
1.12                 -0.02394257       -14.36352
1.124                -0.02441104       -14.43972
1.128                -0.02492161       -14.51627
1.132                -0.02547499       -14.59311
1.136                -0.02607209       -14.67026
1.14                  -0.0267138       -14.74769
1.144                -0.02739864       -14.82541
1.148                -0.02812705        -14.9034
1.152                -0.02889979       -14.98165
1.156                -0.02971569       -15.06014
1.16                 -0.03057486       -15.13888
1.164                -0.03147602       -15.21786
1.168                -0.03241971       -15.29705
1.172                 -0.0334044       -15.37646
1.176                -0.03443087       -15.45607
1.18                 -0.03549643       -15.53588
1.184                -0.03660061       -15.61588
1.188                -0.03774224       -15.69606
1.192                -0.03892129       -15.77642
1.196                 -0.0401361       -15.85695
1.2                  -0.04138429       -15.93763
1.204                -0.04266672       -16.01848
1.208                -0.04397908       -16.09948
1.212                -0.04532245       -16.18062
1.216                -0.04669333       -16.26191
1.22                 -0.04809093       -16.34334
1.224                -0.04951397       -16.42491
1.228                -0.05096082       -16.50662
1.232                -0.05242718       -16.58846
1.236                -0.05391499       -16.67045
1.24                  -0.0554201       -16.75257
1.244                -0.05694058       -16.83482
1.248                -0.05847577       -16.91723
1.252                -0.06002272       -16.99977
1.256                -0.06157963       -17.08247
1.26                 -0.06314454       -17.16532
1.264                -0.06471655       -17.24833
1.268                -0.06629154        -17.3315
1.272                -0.06787059       -17.41485
1.276                  -0.069449       -17.49838
1.28                 -0.07102766       -17.58211
1.284                 -0.0726017       -17.66603
1.288                -0.07417223       -17.75017
1.292                -0.07573526       -17.83452
1.296                  -0.077291       -17.91912
1.3                  -0.07883651       -18.00396
1.304                -0.08037146       -18.08907
1.308                -0.08189338       -18.17445
1.312                -0.08340144       -18.26012
1.316                -0.08489427       -18.34611
1.32                 -0.08637176       -18.43242
1.324                -0.08783078       -18.51907
1.328                -0.08927259       -18.60608
1.332                -0.09069403       -18.69347
1.336                -0.09209663       -18.78126
1.34                 -0.09347837       -18.86947
1.344                -0.09483932       -18.95811
1.348                -0.09617982       -19.04721
1.352                -0.09749818       -19.13679
1.356                -0.09879484       -19.22687
1.36                   -0.100071       -19.31747
1.364                 -0.1013255       -19.40861
1.368                 -0.1025594       -19.50031
1.372                 -0.1037719       -19.59261
1.376                 -0.1049652        -19.6855
1.38                    -0.10614       -19.77903
1.384                 -0.1072956       -19.87321
1.388                 -0.1084364       -19.96806
1.392                 -0.1095598       -20.06361
1.396                 -0.1106691       -20.15987
1.4                   -0.1117649       -20.25688
1.404                 -0.1128511       -20.35464
1.408                 -0.1139265       -20.45318
1.412                 -0.1149948       -20.55253
1.416                 -0.1160568       -20.65269
1.42                  -0.1171161       -20.75369
1.424                 -0.1181743       -20.85556
1.428                 -0.1192332       -20.95831
1.432                 -0.1202972       -21.06195
1.436                 -0.1213662        -21.1665
1.44                  -0.1224444       -21.27199
1.444                 -0.1235364       -21.37843
1.448                 -0.1246417       -21.48582
1.452                  -0.125765        -21.5942
1.456                 -0.1269105       -21.70357
1.46                  -0.1280795       -21.81395
1.464                 -0.1292763       -21.92534
1.468                 -0.1305033       -22.03776
1.472                 -0.1317655       -22.15123
1.476                 -0.1330653       -22.26574
1.48                  -0.1344054       -22.38132
1.484                 -0.1357907       -22.49796
1.488                 -0.1372238       -22.61568
1.492                  -0.138708       -22.73448
1.496                 -0.1402476       -22.85437
1.5                   -0.1418454       -22.97535
1.504                 -0.1435065       -23.09743
1.508                 -0.1452318       -23.22061
1.512                 -0.1470264       -23.34489
1.516                 -0.1488952       -23.47027
1.52                  -0.1508386       -23.59676
1.524                 -0.1528613       -23.72434
1.528                 -0.1549667       -23.85304
1.532                  -0.157158       -23.98283
1.536                 -0.1594381       -24.11371
1.54                  -0.1618112        -24.2457
1.544                 -0.1642787       -24.37877
1.548                 -0.1668449       -24.51293
1.552                 -0.1695112       -24.64816
1.556                 -0.1722819       -24.78447
1.56                  -0.1751584       -24.92185
1.564                 -0.1781448        -25.0603
1.568                 -0.1812407       -25.19979
1.572                 -0.1844519       -25.34033
1.576                  -0.187777       -25.48191
1.58                   -0.191221       -25.62452
1.584                  -0.194784       -25.76816
1.588                 -0.1984696       -25.91281
1.592                 -0.2022774       -26.05846
1.596                  -0.206209       -26.20511
1.6                   -0.2102674       -26.35275
1.604                 -0.2144525       -26.50136
1.608                 -0.2187656       -26.65095
1.612                 -0.2232083        -26.8015
1.616                 -0.2277807       -26.95301
1.62                  -0.2324832       -27.10546
1.624                 -0.2373166       -27.25886
1.628                 -0.2422821       -27.41319
1.632                  -0.247379       -27.56845
1.636                 -0.2526078       -27.72464
1.64                  -0.2579683       -27.88174
1.644                 -0.2634597       -28.03975
1.648                  -0.269082       -28.19868
1.652                 -0.2748362       -28.35851
1.656                  -0.280721       -28.51926
1.66                  -0.2867342       -28.68091
1.664                 -0.2928764       -28.84346
1.668                 -0.2991478       -29.00693
1.672                 -0.3055462       -29.17131
1.676                 -0.3120714       -29.33661
1.68                  -0.3187221       -29.50283
1.684                 -0.3254962       -29.66998
1.688                 -0.3323943       -29.83807
1.692                 -0.3394133        -30.0071
1.696                 -0.3465537       -30.17709
1.7                   -0.3538139       -30.34805
1.704                 -0.3611932          -30.52
1.708                 -0.3686882       -30.69294
1.712                 -0.3763002        -30.8669
1.716                 -0.3840272       -31.04191
1.72                  -0.3918676       -31.21796
1.724                 -0.3998212       -31.39509
1.728                 -0.4078864       -31.57333
1.732                 -0.4160626        -31.7527
1.736                  -0.424348       -31.93323
1.74                  -0.4327442       -32.11493
1.744                 -0.4412484       -32.29786
1.748                 -0.4498623       -32.48204
1.752                 -0.4585825       -32.66749
1.756                 -0.4674116       -32.85426
1.76                  -0.4763491       -33.04239
1.764                 -0.4853954       -33.23193
1.768                 -0.4945503       -33.42289
1.772                 -0.5038153       -33.61533
1.776                 -0.5131901       -33.80929
1.78                  -0.5226777       -34.00483
1.784                 -0.5322786       -34.20197
1.788                  -0.541994       -34.40079
1.792                  -0.551827       -34.60131
1.796                 -0.5617793       -34.80361
1.8                   -0.5718551       -35.00772
1.804                 -0.5820549        -35.2137
1.808                 -0.5923837        -35.4216
1.812                 -0.6028446       -35.63149
1.816                 -0.6134416       -35.84341
1.82                  -0.6241794       -36.05744
1.824                 -0.6350626       -36.27361
1.828                 -0.6460972         -36.492
1.832                 -0.6572884       -36.71267
1.836                 -0.6686417       -36.93567
1.84                  -0.6801641       -37.16106
1.844                 -0.6918605       -37.38891
1.848                 -0.7037417       -37.61929
1.852                 -0.7158129       -37.85224
1.856                 -0.7280829       -38.08783
1.86                  -0.7405622       -38.32613
1.864                 -0.7532555        -38.5672
1.868                 -0.7661761       -38.81109
1.872                 -0.7793319       -39.05788
1.876                 -0.7927341       -39.30762
1.88                  -0.8063934       -39.56037
1.884                 -0.8203211        -39.8162
1.888                 -0.8345287       -40.07516
1.892                 -0.8490292       -40.33732
1.896                 -0.8638357       -40.60272
1.9                   -0.8789587       -40.87143
1.904                 -0.8944141       -41.14351
1.908                 -0.9102159       -41.41901
1.912                 -0.9263773       -41.69798
1.916                 -0.9429125       -41.98048
1.92                  -0.9598389       -42.26656
1.924                  -0.977173       -42.55628
1.928                 -0.9949271       -42.84967
1.932                  -1.013122       -43.14679
1.936                  -1.031773       -43.44769
1.94                   -1.050897       -43.75241
1.944                  -1.070512       -44.06098
1.948                  -1.090638       -44.37348
1.952                   -1.11129       -44.68991
1.956                  -1.132491       -45.01031
1.96                   -1.154259       -45.33476
1.964                  -1.176614       -45.66324
1.968                  -1.199575       -45.99582
1.972                  -1.223164       -46.33251
1.976                  -1.247402       -46.67336
1.98                    -1.27231       -47.01838
1.984                   -1.29791        -47.3676
1.988                  -1.324224       -47.72105
1.992                  -1.351275       -48.07875
1.996                  -1.379085       -48.44072
2                      -1.407678       -48.80697
2.004                  -1.437076       -49.17752
2.008                  -1.467305       -49.55239
2.012                  -1.498389        -49.9316
2.016                  -1.530352       -50.31514
2.02                    -1.56322       -50.70303
2.024                  -1.597017       -51.09529
2.028                  -1.631771        -51.4919
2.032                  -1.667506       -51.89289
2.036                  -1.704251       -52.29825
2.04                    -1.74203       -52.70798
2.044                  -1.780874       -53.12209
2.048                  -1.820808       -53.54056
2.052                   -1.86186       -53.96339
2.056                  -1.904062       -54.39059
2.06                    -1.94744       -54.82214
2.064                  -1.992026       -55.25804
2.068                  -2.037849       -55.69829
2.072                   -2.08494       -56.14284
2.076                  -2.133329       -56.59172
2.08                    -2.18305        -57.0449
2.084                  -2.234134       -57.50238
2.088                  -2.286613       -57.96412
2.092                  -2.340521       -58.43012
2.096                  -2.395895       -58.90038
2.1                    -2.452765       -59.37484
2.104                  -2.511171       -59.85353
2.108                  -2.571147        -60.3364
2.112                  -2.632731       -60.82344
2.116                  -2.695959       -61.31463
2.12                   -2.760874       -61.80996
2.124                  -2.827512       -62.30939
2.128                  -2.895914       -62.81291
2.132                  -2.966124        -63.3205
2.136                  -3.038182       -63.83214
2.14                   -3.112133        -64.3478
2.144                  -3.188025       -64.86746
2.148                  -3.265901       -65.39112
2.152                  -3.345811       -65.91877
2.156                  -3.427801       -66.45033
2.16                   -3.511926       -66.98583
2.164                  -3.598236       -67.52525
2.168                  -3.686786       -68.06855
2.172                  -3.777629       -68.61574
2.176                  -3.870829       -69.16679
2.18                    -3.96644       -69.72169
2.184                  -4.064527       -70.28042
2.188                  -4.165154       -70.84298
2.192                  -4.268388       -71.40936
2.196                  -4.374297       -71.97955
2.2                    -4.482957       -72.55356
2.204                  -4.594441       -73.13136
2.208                  -4.708827         -73.713
2.212                  -4.826199       -74.29843
2.216                  -4.946642        -74.8877
2.22                   -5.070243        -75.4808
2.224                  -5.197102       -76.07777
2.228                  -5.327313       -76.67858
2.232                   -5.46098       -77.28333
2.236                  -5.598213       -77.89201
2.24                   -5.739126       -78.50467
2.244                   -5.88384       -79.12136
2.248                  -6.032479       -79.74211
2.252                  -6.185181       -80.36702
2.256                  -6.342087       -80.99616
2.26                   -6.503346        -81.6296
2.264                  -6.669119       -82.26743
2.268                  -6.839576       -82.90979
2.272                  -7.014894       -83.55677
2.276                  -7.195267       -84.20854
2.28                   -7.380899       -84.86522
2.284                   -7.57201       -85.52705
2.288                  -7.768831       -86.19421
2.292                  -7.971617        -86.8669
2.296                  -8.180636       -87.54541
2.3                    -8.396178       -88.23006
2.304                  -8.618556       -88.92114
2.308                   -8.84811       -89.61904
2.312                  -9.085204       -90.32421
2.316                  -9.330239       -91.03711
2.32                   -9.583646       -91.75833
2.324                  -9.845898       -92.48846
2.328                  -10.11751       -93.22824
2.332                  -10.39906        -93.9785
2.336                  -10.69115       -94.74017
2.34                   -10.99449       -95.51439
2.344                  -11.30983       -96.30237
2.348                  -11.63803       -97.10563
2.352                  -11.98002       -97.92588
2.356                  -12.33687       -98.76515
2.36                   -12.70976       -99.62578
2.364                  -13.10005       -100.5107
2.368                  -13.50926       -101.4232
2.372                  -13.93914       -102.3673
2.376                   -14.3917       -103.3482
2.38                   -14.86924       -104.3718
2.384                  -15.37448       -105.4456
2.388                  -15.91055       -106.5791
2.392                  -16.48121       -107.7841
2.396                  -17.09089       -109.0761
2.4                    -17.74494       -110.4749
2.404                  -18.44984       -112.0072