! TOUCHSTONE file generated by CST MICROWAVE STUDIO
! Date and time: Fri May  6 15:38:57 2022
! Project name: ant1_ceramic_sweep_fr4.cst
! Parameters = {e=0.035; h=1.6; i=0.8; l1=0.5; l2=23.056; ls=80; wl=1.7; ws=30}
! Header version: 2018
! Port assignment regex: !\s*Touchstone port\s*([0-9]+)\s*=\s*(CST MWS port|CST DS port)\s*([0-9]+|Zmin|Zmax)\s*\(\"(.*)\"\)(\s*mode\s*([0-9]+))?.*
! Touchstone port assignment:
! Touchstone port 1 = CST MWS port 1 ("")
# GHz S DB R 50
0                    -0.01729765              -0
0.004                -0.01728182     -0.04210421
0.008                -0.01723535     -0.08422161
0.012                -0.01715566      -0.1263653
0.016                -0.01704634      -0.1685485
0.02                 -0.01690636      -0.2107839
0.024                -0.01673567      -0.2530843
0.028                -0.01653582      -0.2954624
0.032                -0.01630676      -0.3379302
0.036                   -0.01605      -0.3804997
0.04                 -0.01576654      -0.4231826
0.044                -0.01545633      -0.4659899
0.048                -0.01512191      -0.5089325
0.052                -0.01476374      -0.5520207
0.056                 -0.0143833      -0.5952642
0.06                 -0.01398158      -0.6386722
0.064                -0.01356108      -0.6822537
0.068                -0.01312174      -0.7260165
0.072                -0.01266659      -0.7699682
0.076                -0.01219711      -0.8141157
0.08                 -0.01171322      -0.8584651
0.084                -0.01121949      -0.9030217
0.088                -0.01071585      -0.9477906
0.092                 -0.0102048      -0.9927756
0.096               -0.009687808        -1.03798
0.1                 -0.009166863       -1.083407
0.104               -0.008644469       -1.129057
0.108               -0.008122096       -1.174933
0.112               -0.007601734       -1.221034
0.116               -0.007083818        -1.26736
0.12                -0.006572416        -1.31391
0.124               -0.006067966       -1.360681
0.128               -0.005574541       -1.407672
0.132               -0.005091033       -1.454878
0.136               -0.004619966       -1.502297
0.14                -0.004164906       -1.549922
0.144               -0.003724757       -1.597749
0.148               -0.003303614       -1.645771
0.152               -0.002901946       -1.693982
0.156               -0.002521786       -1.742375
0.16                -0.002162064       -1.790941
0.164               -0.001828452       -1.839672
0.168                -0.00151782       -1.888559
0.172               -0.001234817       -1.937593
0.176              -0.0009783989       -1.986764
0.18               -0.0007506453       -2.036062
0.184              -0.0005510382       -2.085476
0.188              -0.0003801204       -2.134995
0.192                -0.00024309       -2.184609
0.196              -0.0001353235       -2.234304
0.2                -5.840997e-05       -2.284071
0.204              -1.291797e-05       -2.333897
0.208              -4.533327e-07        -2.38377
0.212              -2.004354e-05       -2.433678
0.216              -7.072304e-05       -2.483609
0.22               -0.0001551538       -2.533552
0.224              -0.0002692762       -2.583494
0.228              -0.0004147313       -2.633423
0.232              -0.0005921308       -2.683329
0.236              -0.0007995012       -2.733199
0.24                -0.001036942       -2.783022
0.244               -0.001302491       -2.832788
0.248               -0.001595735       -2.882486
0.252               -0.001916273       -2.932105
0.256               -0.002263181       -2.981637
0.26                -0.002633465       -3.031071
0.264               -0.003027763       -3.080399
0.268               -0.003443081       -3.129613
0.272               -0.003879531       -3.178704
0.276                -0.00433464       -3.227666
0.28                   -0.004808       -3.276492
0.284               -0.005296612       -3.325176
0.288               -0.005799026       -3.373713
0.292               -0.006312235       -3.422097
0.296               -0.006837365       -3.470327
0.3                 -0.007370369       -3.518398
0.304               -0.007909768       -3.566308
0.308               -0.008455119       -3.614056
0.312               -0.009002355       -3.661639
0.316               -0.009549965        -3.70906
0.32                 -0.01009698       -3.756318
0.324                -0.01064032       -3.803414
0.328                -0.01117899       -3.850352
0.332                -0.01171041       -3.897133
0.336                -0.01223253       -3.943763
0.34                 -0.01274431       -3.990244
0.344                -0.01324365       -4.036585
0.348                -0.01372849       -4.082788
0.352                 -0.0141972       -4.128863
0.356                -0.01464717       -4.174816
0.36                  -0.0150773       -4.220655
0.364                -0.01548699        -4.26639
0.368                 -0.0158741        -4.31203
0.372                -0.01623698       -4.357585
0.376                -0.01657448       -4.403066
0.38                 -0.01688545       -4.448484
0.384                -0.01716823       -4.493849
0.388                -0.01742316       -4.539176
0.392                -0.01764702       -4.584475
0.396                 -0.0178417        -4.62976
0.4                   -0.0180029       -4.675045
0.404                -0.01813457       -4.720342
0.408                 -0.0182324       -4.765666
0.412                -0.01829876       -4.811032
0.416                -0.01833138       -4.856451
0.42                 -0.01833111        -4.90194
0.424                -0.01829667       -4.947511
0.428                -0.01823043       -4.993181
0.432                -0.01813113       -5.038962
0.436                -0.01799905       -5.084869
0.44                 -0.01783552       -5.130916
0.444                -0.01764027       -5.177118
0.448                -0.01741412       -5.223486
0.452                -0.01715889       -5.270035
0.456                -0.01687432       -5.316777
0.46                 -0.01656225       -5.363726
0.464                -0.01622345       -5.410893
0.468                -0.01585977       -5.458291
0.472                -0.01547147       -5.505929
0.476                -0.01506192        -5.55382
0.48                  -0.0146304       -5.601973
0.484                -0.01417975       -5.650397
0.488                -0.01371131       -5.699102
0.492                -0.01322794       -5.748096
0.496                -0.01272945       -5.797386
0.5                  -0.01221925       -5.846979
0.504                -0.01169972       -5.896881
0.508                 -0.0111712       -5.947097
0.512                 -0.0106366       -5.997632
0.516                -0.01009832       -6.048489
0.52                -0.009559321       -6.099672
0.524                -0.00901894       -6.151182
0.528                -0.00848116       -6.203021
0.532               -0.007948461       -6.255188
0.536               -0.007421743       -6.307684
0.54                -0.006904541       -6.360508
0.544               -0.006397798       -6.413657
0.548               -0.005903518       -6.467128
0.552               -0.005424744       -6.520919
0.556               -0.004961427       -6.575023
0.56                -0.004518722       -6.629438
0.564               -0.004094561       -6.684154
0.568               -0.003695125       -6.739169
0.572               -0.003318914       -6.794472
0.576               -0.002967493       -6.850056
0.58                -0.002644558       -6.905913
0.584               -0.002349636       -6.962034
0.588               -0.002086456       -7.018408
0.592                -0.00185355       -7.075025
0.596               -0.001653624       -7.131875
0.6                 -0.001488347       -7.188947
0.604               -0.001356832       -7.246228
0.608               -0.001260811       -7.303706
0.612               -0.001201468       -7.361369
0.616               -0.001178455       -7.419206
0.62                 -0.00119458       -7.477202
0.624               -0.001246925       -7.535345
0.628               -0.001337768       -7.593622
0.632               -0.001466862       -7.652019
0.636                -0.00163438       -7.710523
0.64                -0.001840624       -7.769121
0.644               -0.002082635       -7.827801
0.648               -0.002362837       -7.886548
0.652               -0.002680925        -7.94535
0.656               -0.003033504       -8.004196
0.66                -0.003421911        -8.06307
0.664               -0.003844819       -8.121964
0.668               -0.004300396       -8.180865
0.672               -0.004789437       -8.239762
0.676               -0.005307998       -8.298644
0.68                -0.005856395         -8.3575
0.684               -0.006431648       -8.416323
0.688                -0.00703511       -8.475102
0.692               -0.007662273       -8.533828
0.696               -0.008312319       -8.592495
0.7                 -0.008984316       -8.651099
0.704               -0.009674418       -8.709627
0.708                -0.01038215       -8.768078
0.712                -0.01110562       -8.826448
0.716                 -0.0118418       -8.884732
0.72                 -0.01258877       -8.942925
0.724                -0.01334342       -9.001028
0.728                -0.01410483       -9.059038
0.732                -0.01487138       -9.116958
0.736                -0.01564002       -9.174786
0.74                 -0.01640762       -9.232524
0.744                  -0.017172       -9.290176
0.748                -0.01793209       -9.347744
0.752                 -0.0186852       -9.405233
0.756                -0.01942857       -9.462648
0.76                 -0.02016052       -9.519996
0.764                -0.02087868       -9.577287
0.768                -0.02157986       -9.634523
0.772                -0.02226425       -9.691719
0.776                -0.02292852       -9.748879
0.78                 -0.02357176       -9.806021
0.784                 -0.0241896       -9.863149
0.788                -0.02478314       -9.920281
0.792                -0.02534946       -9.977427
0.796                -0.02588709        -10.0346
0.8                  -0.02639564       -10.09182
0.804                -0.02687199       -10.14909
0.808                -0.02731568       -10.20644
0.812                -0.02772676       -10.26388
0.816                -0.02810358       -10.32143
0.82                 -0.02844413        -10.3791
0.824                -0.02874934       -10.43691
0.828                -0.02901764       -10.49487
0.832                -0.02924944       -10.55302
0.836                -0.02944367       -10.61136
0.84                 -0.02960113       -10.66991
0.844                -0.02972178       -10.72869
0.848                -0.02980503       -10.78772
0.852                -0.02985168       -10.84703
0.856                -0.02986268       -10.90661
0.86                 -0.02983792       -10.96651
0.864                -0.02977981       -11.02672
0.868                -0.02968713       -11.08728
0.872                -0.02956236       -11.14819
0.876                -0.02940642       -11.20948
0.88                 -0.02922121       -11.27116
0.884                -0.02900763       -11.33325
0.888                -0.02876769       -11.39576
0.892                -0.02850221       -11.45871
0.896                -0.02821483       -11.52211
0.9                  -0.02790588       -11.58598
0.904                -0.02757795       -11.65033
0.908                -0.02723407       -11.71517
0.912                -0.02687577       -11.78051
0.916                -0.02650614       -11.84636
0.92                 -0.02612775       -11.91274
0.924                -0.02574064       -11.97965
0.928                -0.02535115        -12.0471
0.932                -0.02495927       -12.11509
0.936                -0.02456979       -12.18364
0.94                 -0.02418235       -12.25274
0.944                -0.02380184       -12.32241
0.948                  -0.023432       -12.39263
0.952                -0.02307307       -12.46342
0.956                -0.02273047       -12.53478
0.96                 -0.02240456       -12.60671
0.964                -0.02209932       -12.67919
0.968                -0.02181757       -12.75225
0.972                -0.02156185       -12.82586
0.976                -0.02133427       -12.90002
0.98                 -0.02113771       -12.97473
0.984                -0.02097536       -13.04999
0.988                -0.02084829       -13.12578
0.992                -0.02075963        -13.2021
0.996                  -0.020712       -13.27895
1                     -0.0207057        -13.3563
1.004                -0.02074544       -13.43415
1.008                -0.02083094       -13.51249
1.012                -0.02096546        -13.5913
1.016                -0.02114882       -13.67058
1.02                 -0.02138443       -13.75031
1.024                -0.02167301       -13.83048
1.028                -0.02201557       -13.91108
1.032                -0.02241336       -13.99208
1.036                -0.02286688       -14.07348
1.04                 -0.02337709       -14.15526
1.044                -0.02394546       -14.23741
1.048                -0.02457213       -14.31989
1.052                -0.02525648        -14.4027
1.056                -0.02599887       -14.48586
1.06                 -0.02679924        -14.5693
1.064                -0.02765899       -14.65304
1.068                -0.02857544       -14.73705
1.072                -0.02954863       -14.82131
1.076                -0.03057829       -14.90581
1.08                 -0.03166384       -14.99056
1.084                -0.03280322       -15.07553
1.088                -0.03399539       -15.16069
1.092                -0.03524017       -15.24604
1.096                -0.03653449       -15.33155
1.1                  -0.03787771       -15.41723
1.104                -0.03926615       -15.50307
1.108                -0.04070136       -15.58905
1.112                -0.04217798       -15.67516
1.116                 -0.0436954       -15.76144
1.12                  -0.0452513        -15.8478
1.124                -0.04684207        -15.9343
1.128                -0.04846702       -16.02089
1.132                -0.05012188        -16.1076
1.136                -0.05180469        -16.1944
1.14                 -0.05351346       -16.28131
1.144                -0.05524423       -16.36832
1.148                -0.05699393       -16.45544
1.152                -0.05876051       -16.54266
1.156                -0.06054098       -16.62999
1.16                 -0.06233318       -16.71743
1.164                -0.06413242         -16.805
1.168                -0.06593571       -16.89269
1.172                -0.06774276       -16.98052
1.176                -0.06954807        -17.0685
1.18                 -0.07135044       -17.15663
1.184                -0.07314478       -17.24494
1.188                -0.07493199       -17.33344
1.192                -0.07670573       -17.42214
1.196                -0.07846613       -17.51105
1.2                  -0.08020955        -17.6002
1.204                -0.08193461       -17.68962
1.208                -0.08363795       -17.77931
1.212                -0.08531857       -17.86929
1.216                -0.08697398        -17.9596
1.22                 -0.08860289       -18.05026
1.224                -0.09020216       -18.14128
1.228                -0.09177264        -18.2327
1.232                -0.09331062       -18.32454
1.236                -0.09481788       -18.41683
1.24                 -0.09629093        -18.5096
1.244                -0.09772982       -18.60288
1.248                -0.09913653       -18.69669
1.252                 -0.1005076       -18.79107
1.256                 -0.1018437       -18.88604
1.26                  -0.1031463       -18.98165
1.264                 -0.1044147       -19.07791
1.268                 -0.1056507       -19.17485
1.272                 -0.1068536       -19.27252
1.276                  -0.108026       -19.37094
1.28                  -0.1091681       -19.47014
1.284                 -0.1102823       -19.57016
1.288                  -0.111371       -19.67102
1.292                  -0.112434       -19.77275
1.296                 -0.1134749       -19.87539
1.3                   -0.1144972       -19.97897
1.304                 -0.1155022       -20.08351
1.308                 -0.1164922       -20.18903
1.312                 -0.1174728       -20.29559
1.316                 -0.1184444       -20.40318
1.32                  -0.1194123       -20.51185
1.324                 -0.1203796       -20.62162
1.328                 -0.1213498        -20.7325
1.332                 -0.1223274       -20.84453
1.336                 -0.1233173       -20.95773
1.34                  -0.1243218       -21.07212
1.344                 -0.1253465       -21.18771
1.348                 -0.1263958       -21.30452
1.352                 -0.1274746       -21.42258
1.356                 -0.1285873        -21.5419
1.36                  -0.1297381       -21.66248
1.364                 -0.1309331       -21.78436
1.368                 -0.1321779       -21.90752
1.372                 -0.1334743         -22.032
1.376                 -0.1348295       -22.15779
1.38                  -0.1362494        -22.2849
1.384                 -0.1377367       -22.41333
1.388                 -0.1392975        -22.5431
1.392                 -0.1409373        -22.6742
1.396                 -0.1426613       -22.80665
1.4                   -0.1444715       -22.94042
1.404                 -0.1463774       -23.07553
1.408                 -0.1483796       -23.21197
1.412                 -0.1504846       -23.34974
1.416                 -0.1526962       -23.48884
1.42                  -0.1550199       -23.62925
1.424                 -0.1574592       -23.77097
1.428                 -0.1600184         -23.914
1.432                  -0.162702       -24.05831
1.436                  -0.165512       -24.20391
1.44                   -0.168455       -24.35077
1.444                 -0.1715321        -24.4989
1.448                 -0.1747472       -24.64826
1.452                 -0.1781031       -24.79887
1.456                 -0.1816041       -24.95069
1.46                  -0.1852513       -25.10372
1.464                 -0.1890504       -25.25793
1.468                 -0.1929979       -25.41333
1.472                 -0.1971001       -25.56988
1.476                 -0.2013575       -25.72757
1.48                  -0.2057724        -25.8864
1.484                 -0.2103451       -26.04634
1.488                  -0.215078       -26.20738
1.492                 -0.2199709       -26.36951
1.496                 -0.2250253       -26.53271
1.5                   -0.2302408       -26.69697
1.504                  -0.235617       -26.86228
1.508                  -0.241155       -27.02863
1.512                 -0.2468548         -27.196
1.516                 -0.2527155       -27.36439
1.52                  -0.2587341       -27.53378
1.524                 -0.2649144       -27.70419
1.528                  -0.271252       -27.87558
1.532                 -0.2777466       -28.04796
1.536                 -0.2843967       -28.22135
1.54                  -0.2912019       -28.39571
1.544                 -0.2981588       -28.57107
1.548                 -0.3052647       -28.74741
1.552                 -0.3125205       -28.92476
1.556                 -0.3199218       -29.10311
1.56                   -0.327468       -29.28248
1.564                 -0.3351557       -29.46286
1.568                 -0.3429842        -29.6443
1.572                 -0.3509492       -29.82678
1.576                 -0.3590502       -30.01034
1.58                  -0.3672849       -30.19499
1.584                 -0.3756491       -30.38075
1.588                 -0.3841427       -30.56767
1.592                 -0.3927607       -30.75575
1.596                 -0.4015059       -30.94504
1.6                   -0.4103714       -31.13557
1.604                 -0.4193583       -31.32737
1.608                 -0.4284637       -31.52047
1.612                 -0.4376874       -31.71494
1.616                 -0.4470279       -31.91081
1.62                  -0.4564834       -32.10813
1.624                 -0.4660531       -32.30694
1.628                 -0.4757374        -32.5073
1.632                 -0.4855364       -32.70926
1.636                 -0.4954487       -32.91289
1.64                  -0.5054767       -33.11824
1.644                 -0.5156205       -33.32537
1.648                 -0.5258801       -33.53436
1.652                 -0.5362604       -33.74526
1.656                 -0.5467616       -33.95814
1.66                   -0.557387       -34.17308
1.664                 -0.5681379       -34.39015
1.668                 -0.5790209       -34.60942
1.672                 -0.5900371       -34.83097
1.676                 -0.6011943       -35.05488
1.68                   -0.612495       -35.28123
1.684                 -0.6239478       -35.51009
1.688                 -0.6355569       -35.74156
1.692                 -0.6473295       -35.97571
1.696                 -0.6592757       -36.21263
1.7                   -0.6714002       -36.45239
1.704                 -0.6837148       -36.69509
1.708                 -0.6962273       -36.94082
1.712                 -0.7089497       -37.18965
1.716                 -0.7218922       -37.44168
1.72                  -0.7350639       -37.69698
1.724                   -0.74848       -37.95565
1.728                 -0.7621537       -38.21778
1.732                 -0.7760971       -38.48344
1.736                 -0.7903239       -38.75271
1.74                  -0.8048499       -39.02569
1.744                 -0.8196917       -39.30245
1.748                 -0.8348656       -39.58308
1.752                 -0.8503863       -39.86766
1.756                 -0.8662735       -40.15626
1.76                  -0.8825454       -40.44896
1.764                 -0.8992201       -40.74584
1.768                 -0.9163171       -41.04697
1.772                 -0.9338568       -41.35241
1.776                 -0.9518605       -41.66225
1.78                  -0.9703512       -41.97655
1.784                 -0.9893488       -42.29538
1.788                  -1.008877       -42.61878
1.792                   -1.02896       -42.94684
1.796                   -1.04962        -43.2796
1.8                    -1.070883       -43.61712
1.804                  -1.092773       -43.95945
1.808                  -1.115318       -44.30665
1.812                  -1.138541       -44.65876
1.816                  -1.162472       -45.01582
1.82                   -1.187135       -45.37787
1.824                  -1.212563       -45.74498
1.828                  -1.238779       -46.11714
1.832                  -1.265815       -46.49442
1.836                  -1.293701       -46.87682
1.84                   -1.322465        -47.2644
1.844                  -1.352139       -47.65717
1.848                  -1.382755       -48.05514
1.852                  -1.414342       -48.45835
1.856                  -1.446934        -48.8668
1.86                   -1.480563       -49.28052
1.864                  -1.515262       -49.69951
1.868                  -1.551066       -50.12377
1.872                  -1.588007       -50.55332
1.876                  -1.626122       -50.98816
1.88                   -1.665444        -51.4283
1.884                  -1.706012       -51.87372
1.888                   -1.74786       -52.32442
1.892                  -1.791026        -52.7804
1.896                  -1.835546       -53.24166
1.9                     -1.88146       -53.70816
1.904                  -1.928809       -54.17992
1.908                  -1.977627        -54.6569
1.912                  -2.027959        -55.1391
1.916                  -2.079843       -55.62649
1.92                   -2.133325       -56.11907
1.924                  -2.188443       -56.61678
1.928                  -2.245243       -57.11964
1.932                  -2.303769       -57.62759
1.936                  -2.364066       -58.14063
1.94                    -2.42618       -58.65871
1.944                  -2.490157       -59.18181
1.948                  -2.556049        -59.7099
1.952                  -2.623902       -60.24296
1.956                  -2.693769       -60.78096
1.96                   -2.765702       -61.32385
1.964                  -2.839754        -61.8716
1.968                  -2.915978        -62.4242
1.972                  -2.994432       -62.98159
1.976                  -3.075176       -63.54374
1.98                   -3.158266       -64.11064
1.984                  -3.243768       -64.68223
1.988                  -3.331743       -65.25849
1.992                  -3.422257        -65.8394
1.996                  -3.515379       -66.42491
2                      -3.611178       -67.01498
2.004                  -3.709731       -67.60962
2.008                   -3.81111       -68.20876
2.012                  -3.915395       -68.81242
2.016                  -4.022668       -69.42054
2.02                   -4.133017       -70.03311
2.024                  -4.246528       -70.65009
2.028                  -4.363293       -71.27149
2.032                  -4.483414       -71.89728
2.036                  -4.606988       -72.52747
2.04                   -4.734126       -73.16202
2.044                  -4.864936       -73.80094
2.048                  -4.999538       -74.44426
2.052                  -5.138053       -75.09194
2.056                  -5.280616       -75.74403
2.06                    -5.42736       -76.40054
2.064                  -5.578432       -77.06151
2.068                  -5.733986       -77.72693
2.072                  -5.894183       -78.39689
2.076                  -6.059197       -79.07144
2.08                   -6.229211       -79.75062
2.084                  -6.404421       -80.43453
2.088                  -6.585034       -81.12326
2.092                  -6.771275        -81.8169
2.096                   -6.96338       -82.51562
2.1                    -7.161605       -83.21954
2.104                  -7.366224       -83.92883
2.108                  -7.577533       -84.64367
2.112                   -7.79585       -85.36434
2.116                  -8.021518       -86.09105
2.12                   -8.254912       -86.82413
2.124                  -8.496436       -87.56392
2.128                   -8.74653       -88.31082
2.132                  -9.005676       -89.06527
2.136                  -9.274402       -89.82782
2.14                   -9.553284       -90.59908
2.144                   -9.84296       -91.37974
2.148                  -10.14413       -92.17065
2.152                  -10.45758       -92.97274
2.156                  -10.78418       -93.78714
2.16                   -11.12489       -94.61518
2.164                  -11.48081       -95.45835
2.168                  -11.85316       -96.31856
2.172                  -12.24333       -97.19795
2.176                   -12.6529       -98.09917
2.18                   -13.08369        -99.0254
2.184                  -13.53778       -99.98052
2.188                   -14.0176       -100.9693
2.192                  -14.52599       -101.9976
2.196                  -15.06629        -103.073
2.2                    -15.64247       -104.2049
2.204                  -16.25931       -105.4056
2.208                  -16.92261       -106.6912
2.212                  -17.63951       -108.0833
2.216                  -18.41889       -109.6113
2.22                   -19.27199       -111.3166
2.224                  -20.21326       -113.2591
2.228                  -21.26157       -115.5281
2.232                  -22.44194        -118.263
2.236                  -23.78786       -121.6919
2.24                   -25.34364       -126.2105
2.244                  -27.16308        -132.551
2.248                  -29.28591       -142.1499
2.252                  -31.60738       -157.7837
2.256                   -33.4177         177.078
2.26                   -33.28065        146.3847
2.264                  -31.35764        122.5717
2.268                  -29.07566        107.9557
2.272                  -27.02609        98.91738
2.276                  -25.27801        92.88963
2.28                   -23.78631        88.56065
2.284                  -22.49796        85.25779
2.288                  -21.37013         82.6144
2.292                  -20.37062        80.41735
2.296                   -19.4753        78.53556
2.3                    -18.66599        76.88442
2.304                  -17.92872        75.40706
2.308                  -17.25258          74.064
2.312                  -16.62895        72.82696
2.316                  -16.05089        71.67522
2.32                   -15.51274        70.59328
2.324                  -15.00984        69.56927
2.328                  -14.53829        68.59403
2.332                  -14.09483        67.66033
2.336                  -13.67667        66.76241
2.34                   -13.28143        65.89565
2.344                  -12.90705        65.05628
2.348                  -12.55175        64.24119
2.352                  -12.21397        63.44782
2.356                  -11.89233        62.67407
2.36                   -11.58562        61.91811
2.364                  -11.29277        61.17845
2.368                  -11.01281        60.45382
2.372                  -10.74487         59.7431
2.376                  -10.48818        59.04535
2.38                   -10.24205        58.35982
2.384                  -10.00583        57.68576
2.388                  -9.778949        57.02262
2.392                  -9.560876        56.36986
2.396                  -9.351126        55.72703
2.4                    -9.149258        55.09375
2.404                  -8.954862        54.46966