! TOUCHSTONE file generated by CST MICROWAVE STUDIO
! Date and time: Fri May  6 15:38:58 2022
! Project name: ant1_ceramic_sweep_fr4.cst
! Parameters = {e=0.035; h=1.6; i=0.8; l1=0.5; l2=20.96; ls=79.2; wl=1.7; ws=30}
! Header version: 2018
! Port assignment regex: !\s*Touchstone port\s*([0-9]+)\s*=\s*(CST MWS port|CST DS port)\s*([0-9]+|Zmin|Zmax)\s*\(\"(.*)\"\)(\s*mode\s*([0-9]+))?.*
! Touchstone port assignment:
! Touchstone port 1 = CST MWS port 1 ("")
# GHz S DB R 50
0                    -0.01380819              -0
0.004                -0.01379773     -0.04046351
0.008                 -0.0137653     -0.08093543
0.012                -0.01371194      -0.1214241
0.016                 -0.0136366       -0.161938
0.02                 -0.01354083      -0.2024853
0.024                -0.01342409      -0.2430741
0.028                -0.01328792      -0.2837126
0.032                -0.01313125      -0.3244086
0.036                -0.01295459      -0.3651698
0.04                 -0.01275893      -0.4060039
0.044                -0.01254685      -0.4469182
0.048                -0.01231571      -0.4879196
0.052                -0.01206807      -0.5290153
0.056                -0.01180441      -0.5702116
0.06                  -0.0115252      -0.6115149
0.064                -0.01123195      -0.6529311
0.068                -0.01092463       -0.694466
0.072                -0.01060524      -0.7361248
0.076                -0.01027375      -0.7779125
0.08                -0.009932684      -0.8198337
0.084               -0.009581481      -0.8618926
0.088               -0.009222673       -0.904093
0.092               -0.008854651      -0.9464384
0.096               -0.008482022      -0.9889315
0.1                 -0.008104212       -1.031575
0.104               -0.007722717       -1.074371
0.108                  -0.007338       -1.117322
0.112               -0.006952593       -1.160428
0.116               -0.006566961       -1.203691
0.12                 -0.00618208       -1.247111
0.124                -0.00580049       -1.290687
0.128               -0.005420581       -1.334421
0.132               -0.005045413       -1.378309
0.136               -0.004677006       -1.422351
0.14                -0.004314793       -1.466546
0.144                -0.00396184       -1.510891
0.148                -0.00361551       -1.555384
0.152               -0.003281981       -1.600022
0.156               -0.002958625       -1.644801
0.16                -0.002646962       -1.689717
0.164               -0.002350586       -1.734767
0.168               -0.002066882       -1.779946
0.172               -0.001797895       -1.825249
0.176               -0.001546197       -1.870671
0.18                -0.001310734       -1.916207
0.184               -0.001092017        -1.96185
0.188              -0.0008926237       -2.007596
0.192              -0.0007109972       -2.053438
0.196              -0.0005492154       -2.099369
0.2                -0.0004072784       -2.145382
0.204              -0.0002872709       -2.191472
0.208              -0.0001886883       -2.237631
0.212               -0.000107927       -2.283851
0.216              -5.122119e-05       -2.330126
0.22               -1.497745e-05       -2.376448
0.224              -7.791258e-07        -2.42281
0.228              -8.664254e-06       -2.469205
0.232              -3.867066e-05       -2.515624
0.236              -9.084279e-05       -2.562062
0.24               -0.0001631588       -2.608509
0.244              -0.0002582585       -2.654959
0.248              -0.0003746436       -2.701404
0.252              -0.0005118494       -2.747838
0.256              -0.0006699426       -2.794252
0.26               -0.0008484597       -2.840642
0.264               -0.001044881       -2.886999
0.268               -0.001261861       -2.933317
0.272               -0.001497914        -2.97959
0.276               -0.001749482       -3.025811
0.28                -0.002020266       -3.071975
0.284               -0.002305149       -3.118076
0.288               -0.002607829        -3.16411
0.292               -0.002923199       -3.210071
0.296               -0.003253916       -3.255954
0.3                 -0.003594865       -3.301756
0.304               -0.003949748       -3.347472
0.308               -0.004313953       -3.393099
0.312                -0.00468704       -3.438633
0.316               -0.005069057       -3.484073
0.32                -0.005457992       -3.529415
0.324               -0.005852866       -3.574658
0.328                -0.00625268       -3.619802
0.332               -0.006655418       -3.664843
0.336               -0.007060605       -3.709782
0.34                -0.007467749       -3.754619
0.344                -0.00787481       -3.799355
0.348               -0.008279226        -3.84399
0.352               -0.008682055       -3.888525
0.356               -0.009080191       -3.932963
0.36                -0.009473145       -3.977304
0.364               -0.009860899       -4.021553
0.368                -0.01024087       -4.065711
0.372                -0.01061251       -4.109785
0.376                -0.01097375       -4.153774
0.38                 -0.01132454       -4.197686
0.384                -0.01166229       -4.241525
0.388                  -0.011989       -4.285296
0.392                -0.01230049       -4.329004
0.396                -0.01259723       -4.372656
0.4                  -0.01287761       -4.416258
0.404                -0.01314257       -4.459817
0.408                -0.01338791       -4.503339
0.412                -0.01361616       -4.546831
0.416                -0.01382563       -4.590302
0.42                 -0.01401522        -4.63376
0.424                -0.01418484       -4.677211
0.428                -0.01433279       -4.720665
0.432                -0.01446104       -4.764131
0.436                -0.01456586       -4.807616
0.44                 -0.01464867       -4.851129
0.444                -0.01470985       -4.894681
0.448                -0.01474928       -4.938278
0.452                -0.01476473       -4.981932
0.456                -0.01475917        -5.02565
0.46                  -0.0147309       -5.069443
0.464                -0.01467925       -5.113318
0.468                 -0.0146056       -5.157286
0.472                -0.01451085       -5.201355
0.476                -0.01439275       -5.245535
0.48                 -0.01425478       -5.289834
0.484                -0.01409468       -5.334261
0.488                -0.01391487       -5.378825
0.492                -0.01371469       -5.423534
0.496                -0.01349654       -5.468397
0.5                  -0.01325975       -5.513421
0.504                -0.01300464       -5.558614
0.508                -0.01273263       -5.603983
0.512                -0.01244508       -5.649536
0.516                -0.01214234        -5.69528
0.52                 -0.01182582       -5.741221
0.524                -0.01149588       -5.787364
0.528                 -0.0111539       -5.833716
0.532                -0.01080179       -5.880283
0.536                -0.01043994       -5.927069
0.54                 -0.01006974       -5.974079
0.544                -0.00969312       -6.021317
0.548               -0.009310986       -6.068786
0.552               -0.008922685        -6.11649
0.556               -0.008532235       -6.164431
0.56                -0.008138994       -6.212612
0.564               -0.007745955       -6.261035
0.568               -0.007354053       -6.309701
0.572               -0.006963202        -6.35861
0.576               -0.006576386       -6.407764
0.58                 -0.00619354       -6.457161
0.584               -0.005817705       -6.506802
0.588               -0.005449313       -6.556685
0.592               -0.005089334        -6.60681
0.596               -0.004739302       -6.657172
0.6                 -0.004400709       -6.707772
0.604               -0.004075092       -6.758604
0.608               -0.003762908       -6.809667
0.612                -0.00346625       -6.860957
0.616               -0.003185638       -6.912468
0.62                -0.002921065       -6.964196
0.624               -0.002676165       -7.016137
0.628               -0.002449418       -7.068285
0.632               -0.002243963       -7.120635
0.636               -0.002058809        -7.17318
0.64                -0.001894523       -7.225914
0.644               -0.001753774        -7.27883
0.648               -0.001637105       -7.331922
0.652               -0.001543613       -7.385182
0.656               -0.001476457       -7.438604
0.66                -0.001432656       -7.492178
0.664               -0.001414865       -7.545899
0.668               -0.001422183       -7.599756
0.672               -0.001456279       -7.653744
0.676               -0.001517274       -7.707853
0.68                -0.001604262       -7.762075
0.684               -0.001717339       -7.816403
0.688               -0.001858794       -7.870827
0.692               -0.002025581       -7.925342
0.696               -0.002219437       -7.979937
0.7                 -0.002438457       -8.034603
0.704                -0.00268329       -8.089334
0.708               -0.002953032       -8.144122
0.712               -0.003248359        -8.19896
0.716               -0.003568375        -8.25384
0.72                -0.003912283       -8.308752
0.724               -0.004278063       -8.363692
0.728               -0.004667962       -8.418653
0.732               -0.005078504       -8.473627
0.736               -0.005509291       -8.528609
0.74                -0.005959946       -8.583594
0.744               -0.006429564       -8.638574
0.748               -0.006916712       -8.693546
0.752               -0.007420494       -8.748503
0.756               -0.007938871       -8.803443
0.76                -0.008471461       -8.858362
0.764               -0.009017868       -8.913254
0.768               -0.009574973        -8.96812
0.772                -0.01014291       -9.022955
0.776                -0.01072013       -9.077759
0.78                 -0.01130519       -9.132527
0.784                -0.01189442       -9.187259
0.788                -0.01248989       -9.241959
0.792                -0.01308906       -9.296623
0.796                -0.01368878       -9.351252
0.8                  -0.01428953       -9.405849
0.804                -0.01488922       -9.460413
0.808                -0.01548721       -9.514951
0.812                -0.01607931       -9.569461
0.816                -0.01666749       -9.623949
0.82                 -0.01724855       -9.678418
0.824                 -0.0178223       -9.732875
0.828                 -0.0183855       -9.787322
0.832                -0.01893798       -9.841768
0.836                -0.01947808       -9.896214
0.84                 -0.02000496       -9.950672
0.844                -0.02051739       -10.00515
0.848                -0.02101473       -10.05965
0.852                 -0.0214945       -10.11418
0.856                -0.02195601       -10.16875
0.86                 -0.02239945       -10.22338
0.864                 -0.0228225       -10.27806
0.868                -0.02322477       -10.33281
0.872                -0.02360645       -10.38764
0.876                -0.02396473       -10.44256
0.88                 -0.02430067       -10.49759
0.884                 -0.0246124       -10.55272
0.888                -0.02490211       -10.60798
0.892                -0.02516529       -10.66337
0.896                -0.02540564        -10.7189
0.9                  -0.02562018        -10.7746
0.904                -0.02580952       -10.83046
0.908                -0.02597375       -10.88651
0.912                -0.02611397       -10.94275
0.916                -0.02622868       -10.99919
0.92                 -0.02631802       -11.05586
0.924                -0.02638404       -11.11275
0.928                -0.02642527       -11.16989
0.932                -0.02644337       -11.22728
0.936                -0.02643832       -11.28494
0.94                 -0.02641074       -11.34288
0.944                -0.02636116        -11.4011
0.948                -0.02629179       -11.45963
0.952                -0.02620209       -11.51847
0.956                -0.02609366       -11.57763
0.96                 -0.02596717       -11.63712
0.964                -0.02582367       -11.69696
0.968                 -0.0256653       -11.75715
0.972                -0.02549221        -11.8177
0.976                -0.02530705       -11.87862
0.98                 -0.02510938       -11.93992
0.984                -0.02490293       -12.00161
0.988                -0.02468734        -12.0637
0.992                -0.02446483       -12.12619
0.996                -0.02423765       -12.18908
1                     -0.0240059       -12.25239
1.004                 -0.0237724       -12.31612
1.008                -0.02353886       -12.38028
1.012                -0.02330709       -12.44486
1.016                -0.02307828       -12.50988
1.02                 -0.02285484       -12.57533
1.024                -0.02263799       -12.64122
1.028                -0.02242966       -12.70756
1.032                -0.02223319       -12.77433
1.036                 -0.0220479       -12.84155
1.04                 -0.02187624        -12.9092
1.044                 -0.0217221       -12.97731
1.048                -0.02158405       -13.04584
1.052                -0.02146666       -13.11483
1.056                -0.02136911       -13.18425
1.06                 -0.02129576       -13.25408
1.064                -0.02124566       -13.32438
1.068                -0.02122256       -13.39508
1.072                -0.02122641       -13.46623
1.076                -0.02125955       -13.53778
1.08                 -0.02132287       -13.60974
1.084                -0.02141877       -13.68209
1.088                -0.02154814       -13.75484
1.092                -0.02171087       -13.82801
1.096                -0.02190933       -13.90156
1.1                  -0.02214496       -13.97546
1.104                -0.02241705       -14.04977
1.108                -0.02272914       -14.12441
1.112                -0.02308103       -14.19943
1.116                -0.02347208       -14.27479
1.12                 -0.02390379       -14.35046
1.124                -0.02437698       -14.42644
1.128                -0.02489296       -14.50279
1.132                -0.02544989       -14.57943
1.136                -0.02604962       -14.65636
1.14                 -0.02669199       -14.73358
1.144                -0.02737758       -14.81108
1.148                -0.02810585       -14.88885
1.152                 -0.0288754       -14.96688
1.156                  -0.029688       -15.04516
1.16                 -0.03054197       -15.12368
1.164                -0.03143852       -15.20244
1.168                -0.03237386       -15.28141
1.172                -0.03335115       -15.36061
1.176                -0.03436775       -15.44001
1.18                 -0.03542275       -15.51961
1.184                -0.03651583        -15.5994
1.188                -0.03764559       -15.67938
1.192                -0.03881079       -15.75954
1.196                -0.04001048       -15.83987
1.2                  -0.04124435       -15.92036
1.204                 -0.0425094       -16.00102
1.208                 -0.0438051       -16.08183
1.212                -0.04512953        -16.1628
1.216                 -0.0464811       -16.24392
1.22                  -0.0478594       -16.32518
1.224                -0.04926191       -16.40659
1.228                -0.05068678       -16.48814
1.232                -0.05213301       -16.56984
1.236                -0.05359845       -16.65168
1.24                 -0.05507972       -16.73366
1.244                -0.05657711        -16.8158
1.248                -0.05808904       -16.89807
1.252                -0.05961168       -16.98051
1.256                -0.06114474        -17.0631
1.26                 -0.06268538       -17.14585
1.264                -0.06423277       -17.22877
1.268                -0.06578487       -17.31186
1.272                -0.06733826       -17.39513
1.276                -0.06889248       -17.47859
1.28                 -0.07044641       -17.56225
1.284                -0.07199741       -17.64612
1.288                -0.07354297        -17.7302
1.292                -0.07508337       -17.81452
1.296                -0.07661553       -17.89908
1.3                  -0.07813938       -17.98389
1.304                -0.07965194       -18.06898
1.308                -0.08115167       -18.15434
1.312                 -0.0826401       -18.24001
1.316                 -0.0841135       -18.32599
1.32                 -0.08556991        -18.4123
1.324                -0.08701042       -18.49896
1.328                -0.08843422       -18.58598
1.332                -0.08983923       -18.67339
1.336                -0.09122598        -18.7612
1.34                  -0.0925931       -18.84943
1.344                -0.09394044        -18.9381
1.348                -0.09526692       -19.02723
1.352                -0.09657398       -19.11685
1.356                -0.09785992       -19.20696
1.36                 -0.09912599        -19.2976
1.364                 -0.1003712       -19.38878
1.368                 -0.1015974       -19.48052
1.372                 -0.1028035       -19.57285
1.376                 -0.1039923       -19.66579
1.38                  -0.1051629       -19.75936
1.384                 -0.1063164       -19.85358
1.388                 -0.1074537       -19.94847
1.392                 -0.1085779       -20.04406
1.396                 -0.1096867       -20.14035
1.4                   -0.1107849       -20.23739
1.404                 -0.1118736       -20.33518
1.408                 -0.1129533       -20.43375
1.412                 -0.1140259       -20.53311
1.416                 -0.1150945       -20.63329
1.42                  -0.1161606       -20.73431
1.424                 -0.1172257       -20.83619
1.428                 -0.1182945       -20.93893
1.432                 -0.1193675       -21.04257
1.436                 -0.1204473       -21.14712
1.44                  -0.1215376       -21.25259
1.444                 -0.1226407         -21.359
1.448                 -0.1237595       -21.46637
1.452                 -0.1248962        -21.5747
1.456                 -0.1260559       -21.68403
1.46                  -0.1272393       -21.79435
1.464                 -0.1284507       -21.90568
1.468                 -0.1296943       -22.01804
1.472                 -0.1309721       -22.13142
1.476                 -0.1322866       -22.24585
1.48                  -0.1336435       -22.36132
1.484                 -0.1350451       -22.47786
1.488                 -0.1364952       -22.59547
1.492                 -0.1379962       -22.71414
1.496                 -0.1395521        -22.8339
1.5                   -0.1411672       -22.95474
1.504                 -0.1428435       -23.07667
1.508                 -0.1445856       -23.19968
1.512                  -0.146396       -23.32379
1.516                  -0.148279         -23.449
1.52                   -0.150237       -23.57529
1.524                 -0.1522743       -23.70269
1.528                 -0.1543932       -23.83117
1.532                 -0.1565973       -23.96074
1.536                 -0.1588901       -24.09141
1.54                  -0.1612743       -24.22316
1.544                 -0.1637522       -24.35599
1.548                 -0.1663279        -24.4899
1.552                 -0.1690033       -24.62489
1.556                 -0.1717815       -24.76093
1.56                  -0.1746639       -24.89804
1.564                 -0.1776548       -25.03621
1.568                  -0.180756       -25.17542
1.572                 -0.1839696       -25.31568
1.576                 -0.1872971       -25.45696
1.58                  -0.1907418       -25.59928
1.584                 -0.1943054       -25.74261
1.588                 -0.1979876       -25.88694
1.592                 -0.2017919       -26.03228
1.596                  -0.205719       -26.17862
1.6                   -0.2097704       -26.32593
1.604                 -0.2139486       -26.47423
1.608                 -0.2182526       -26.62349
1.612                 -0.2226843       -26.77371
1.616                 -0.2272439       -26.92489
1.62                  -0.2319337       -27.07702
1.624                 -0.2367532       -27.23008
1.628                 -0.2417009       -27.38408
1.632                 -0.2467794       -27.53901
1.636                 -0.2519895       -27.69486
1.64                  -0.2573276       -27.85163
1.644                 -0.2627971       -28.00932
1.648                 -0.2683957       -28.16791
1.652                 -0.2741244       -28.32742
1.656                 -0.2799822       -28.48785
1.66                  -0.2859689       -28.64918
1.664                 -0.2920812       -28.81142
1.668                 -0.2983219       -28.97457
1.672                 -0.3046879       -29.13864
1.676                 -0.3111799       -29.30363
1.68                  -0.3177962       -29.46955
1.684                 -0.3245353        -29.6364
1.688                 -0.3313964       -29.80419
1.692                 -0.3383782       -29.97293
1.696                 -0.3454817       -30.14264
1.7                    -0.352702       -30.31333
1.704                 -0.3600401       -30.48501
1.708                 -0.3674941       -30.65768
1.712                 -0.3750644       -30.83138
1.716                 -0.3827484       -31.00613
1.72                  -0.3905459       -31.18194
1.724                 -0.3984555       -31.35884
1.728                 -0.4064756       -31.53684
1.732                 -0.4146075       -31.71598
1.736                 -0.4228484       -31.89628
1.74                  -0.4311988       -32.07777
1.744                 -0.4396569       -32.26049
1.748                  -0.448223       -32.44446
1.752                 -0.4568981       -32.62972
1.756                 -0.4656812        -32.8163
1.76                  -0.4745713       -33.00425
1.764                 -0.4835701       -33.19359
1.768                 -0.4926779       -33.38438
1.772                 -0.5018958       -33.57665
1.776                 -0.5112249       -33.77045
1.78                  -0.5206659       -33.96582
1.784                 -0.5302206       -34.16281
1.788                 -0.5398899       -34.36147
1.792                 -0.5496765       -34.56185
1.796                 -0.5595842         -34.764
1.8                   -0.5696142       -34.96797
1.804                 -0.5797683        -35.1738
1.808                 -0.5900532       -35.38157
1.812                 -0.6004699       -35.59133
1.816                 -0.6110238       -35.80312
1.82                  -0.6217179         -36.017
1.824                 -0.6325592       -36.23306
1.828                 -0.6435505       -36.45131
1.832                 -0.6546997       -36.67184
1.836                 -0.6660116       -36.89471
1.84                  -0.6774931       -37.11997
1.844                 -0.6891505       -37.34768
1.848                 -0.7009906       -37.57792
1.852                 -0.7130228       -37.81073
1.856                 -0.7252534       -38.04618
1.86                  -0.7376912       -38.28433
1.864                 -0.7503479       -38.52525
1.868                 -0.7632283       -38.76898
1.872                  -0.776347       -39.01562
1.876                 -0.7897117       -39.26519
1.88                  -0.8033325       -39.51776
1.884                  -0.817223       -39.77342
1.888                 -0.8313933        -40.0322
1.892                 -0.8458561       -40.29416
1.896                 -0.8606239       -40.55936
1.9                   -0.8757095       -40.82788
1.904                 -0.8911275       -41.09974
1.908                 -0.9068897       -41.37501
1.912                 -0.9230124       -41.65376
1.916                 -0.9395103       -41.93603
1.92                  -0.9563971       -42.22186
1.924                 -0.9736898       -42.51131
1.928                  -0.991405       -42.80445
1.932                  -1.009557       -43.10129
1.936                  -1.028164        -43.4019
1.94                   -1.047246       -43.70633
1.944                  -1.066816        -44.0146
1.948                  -1.086896       -44.32677
1.952                  -1.107503       -44.64287
1.956                  -1.128655       -44.96295
1.96                   -1.150374       -45.28704
1.964                  -1.172676       -45.61517
1.968                  -1.195585       -45.94738
1.972                  -1.219121        -46.2837
1.976                  -1.243302       -46.62415
1.98                   -1.268152       -46.96878
1.984                  -1.293692       -47.31759
1.988                  -1.319943       -47.67061
1.992                   -1.34693       -48.02789
1.996                  -1.374673       -48.38941
2                      -1.403196       -48.75522
2.004                  -1.432523       -49.12531
2.008                  -1.462678       -49.49971
2.012                  -1.493684       -49.87845
2.016                  -1.525568       -50.26151
2.02                   -1.558352        -50.6489
2.024                  -1.592062       -51.04066
2.028                  -1.626727       -51.43677
2.032                  -1.662368       -51.83724
2.036                  -1.699017       -52.24207
2.04                   -1.736696       -52.65127
2.044                  -1.775436       -53.06484
2.048                  -1.815262       -53.48276
2.052                  -1.856204       -53.90505
2.056                  -1.898291       -54.33169
2.06                   -1.941551       -54.76269
2.064                  -1.986013       -55.19801
2.068                  -2.031709       -55.63769
2.072                  -2.078667       -56.08168
2.076                  -2.126921       -56.52998
2.08                     -2.1765       -56.98258
2.084                  -2.227437       -57.43947
2.088                  -2.279767       -57.90064
2.092                  -2.333521       -58.36606
2.096                  -2.388733       -58.83572
2.1                    -2.445438       -59.30961
2.104                  -2.503673       -59.78771
2.108                  -2.563474       -60.26999
2.112                  -2.624875       -60.75645
2.116                  -2.687916       -61.24707
2.12                   -2.752637        -61.7418
2.124                  -2.819076       -62.24066
2.128                  -2.887274        -62.7436
2.132                  -2.957271       -63.25062
2.136                  -3.029113       -63.76171
2.14                   -3.102842        -64.2768
2.144                  -3.178503       -64.79592
2.148                  -3.256141       -65.31904
2.152                  -3.335806       -65.84612
2.156                  -3.417546       -66.37715
2.16                   -3.501412       -66.91212
2.164                  -3.587456       -67.45102
2.168                  -3.675731       -67.99381
2.172                  -3.766294       -68.54049
2.176                  -3.859203       -69.09103
2.18                   -3.954517       -69.64545
2.184                  -4.052296       -70.20371
2.188                  -4.152608       -70.76581
2.192                  -4.255518       -71.33174
2.196                  -4.361092       -71.90149
2.2                    -4.469408       -72.47507
2.204                  -4.580538       -73.05246
2.208                  -4.694561       -73.63368
2.212                  -4.811556       -74.21873
2.216                  -4.931612       -74.80763
2.22                   -5.054815       -75.40035
2.224                  -5.181263       -75.99697
2.228                  -5.311051       -76.59747
2.232                  -5.444283       -77.20191
2.236                  -5.581064       -77.81029
2.24                   -5.721512       -78.42266
2.244                  -5.865746       -79.03908
2.248                   -6.01389        -79.6596
2.252                  -6.166079       -80.28428
2.256                  -6.322455        -80.9132
2.26                   -6.483167       -81.54644
2.264                  -6.648371        -82.1841
2.268                  -6.818238        -82.8263
2.272                  -6.992946       -83.47314
2.276                  -7.172685       -84.12479
2.28                   -7.357659        -84.7814
2.284                  -7.548084       -85.44312
2.288                  -7.744195        -86.1102
2.292                  -7.946237       -86.78286
2.296                  -8.154481       -87.46135
2.3                    -8.369214       -88.14598
2.304                  -8.590745       -88.83706
2.308                  -8.819411       -89.53499
2.312                  -9.055575       -90.24017
2.316                  -9.299632       -90.95313
2.32                   -9.552011       -91.67437
2.324                  -9.813177       -92.40456
2.328                  -10.08364       -93.14439
2.332                  -10.36397        -93.8947
2.336                  -10.65478        -94.6564
2.34                   -10.95675       -95.43063
2.344                  -11.27063       -96.21862
2.348                  -11.59726       -97.02184
2.352                  -11.93758       -97.84196
2.356                  -12.29263       -98.68104
2.36                   -12.66357       -99.54141
2.364                  -13.05175       -100.4259
2.368                  -13.45867       -101.3378
2.372                  -13.88604       -102.2812
2.376                  -14.33583       -103.2609
2.38                   -14.81034       -104.2831
2.384                  -15.31219       -105.3549
2.388                  -15.84449       -106.4857
2.392                  -16.41089       -107.6873
2.396                  -17.01575       -108.9745
2.4                    -17.66428        -110.367
2.404                   -18.3628       -111.8906