! TOUCHSTONE file generated by CST MICROWAVE STUDIO
! Date and time: Fri May  6 15:38:59 2022
! Project name: ant1_ceramic_sweep_fr4.cst
! Parameters = {e=0.035; h=1.6; i=0.8; l1=0.5; l2=20.96; ls=80; wl=1.7; ws=27}
! Header version: 2018
! Port assignment regex: !\s*Touchstone port\s*([0-9]+)\s*=\s*(CST MWS port|CST DS port)\s*([0-9]+|Zmin|Zmax)\s*\(\"(.*)\"\)(\s*mode\s*([0-9]+))?.*
! Touchstone port assignment:
! Touchstone port 1 = CST MWS port 1 ("")
# GHz S DB R 50
0                    -0.01374856              -0
0.004                -0.01373913     -0.04047354
0.008                 -0.0137067     -0.08095546
0.012                -0.01365282      -0.1214541
0.016                -0.01357851      -0.1619779
0.02                 -0.01348325      -0.2025349
0.024                -0.01336701      -0.2431334
0.028                -0.01323135      -0.2837813
0.032                -0.01307415      -0.3244866
0.036                -0.01289902      -0.3652569
0.04                 -0.01270491      -0.4060998
0.044                -0.01249229      -0.4470226
0.048                -0.01226216      -0.4880323
0.052                -0.01201502      -0.5291359
0.056                -0.01175289      -0.5703398
0.06                 -0.01147469      -0.6116504
0.064                -0.01118298      -0.6530736
0.068                -0.01087666       -0.694615
0.072                -0.01055776      -0.7362798
0.076                -0.01022832      -0.7780732
0.08                -0.009888263      -0.8199996
0.084               -0.009538587      -0.8620632
0.088                -0.00918027      -0.9042679
0.092               -0.008815329       -0.946617
0.096               -0.008443191      -0.9891135
0.1                 -0.008066909        -1.03176
0.104               -0.007686425       -1.074558
0.108               -0.007304273       -1.117511
0.112               -0.006919361       -1.160618
0.116               -0.006535777       -1.203882
0.12                -0.006152948       -1.247302
0.124               -0.005771339       -1.290878
0.128               -0.005394521        -1.33461
0.132               -0.005020891       -1.378497
0.136               -0.004652989       -1.422537
0.14                -0.004292837        -1.46673
0.144               -0.003940393       -1.511072
0.148               -0.003597166       -1.555561
0.152               -0.003264669       -1.600195
0.156               -0.002942349       -1.644969
0.16                -0.002632762        -1.68988
0.164               -0.002336393       -1.734924
0.168               -0.002054251       -1.780097
0.172               -0.001786833       -1.825394
0.176               -0.001536704       -1.870809
0.18                -0.001302818       -1.916338
0.184               -0.001084124       -1.961974
0.188              -0.0008863138       -2.007711
0.192              -0.0007057571       -2.053544
0.196              -0.0005455621       -2.099467
0.2                -0.0004041851       -2.145471
0.204              -0.0002852573       -2.191551
0.208              -0.0001862058         -2.2377
0.212              -0.0001070486       -2.283911
0.216              -4.988138e-05       -2.330175
0.22                -1.42133e-05       -2.376487
0.224              -7.994274e-08       -2.422839
0.228              -8.548549e-06       -2.469222
0.232              -3.862379e-05       -2.515631
0.236              -9.087028e-05       -2.562058
0.24               -0.0001642977       -2.608494
0.244              -0.0002589616       -2.654932
0.248              -0.0003743888       -2.701367
0.252                 -0.0005122        -2.74779
0.256              -0.0006693406       -2.794194
0.26               -0.0008479466       -2.840572
0.264               -0.001043941       -2.886918
0.268               -0.001260493       -2.933226
0.272               -0.001495603       -2.979488
0.276               -0.001747783       -3.025699
0.28                -0.002017104       -3.071854
0.284               -0.002302598       -3.117946
0.288               -0.002602784        -3.16397
0.292               -0.002918767       -3.209921
0.296               -0.003246469       -3.255795
0.3                 -0.003588028       -3.301589
0.304               -0.003939888       -3.347296
0.308               -0.004303151       -3.392915
0.312               -0.004674763       -3.438443
0.316               -0.005055829       -3.483875
0.32                 -0.00544329       -3.529211
0.324                -0.00583668       -3.574449
0.328               -0.006234506       -3.619586
0.332               -0.006636793       -3.664622
0.336               -0.007040488       -3.709557
0.34                -0.007445615       -3.754391
0.344               -0.007850663       -3.799123
0.348               -0.008253572       -3.843755
0.352                -0.00865489       -3.888288
0.356               -0.009052036       -3.932724
0.36                -0.009443988       -3.977064
0.364               -0.009829174       -4.021312
0.368                -0.01020708       -4.065471
0.372                -0.01057719       -4.109544
0.376                -0.01093687       -4.153535
0.38                 -0.01128561       -4.197448
0.384                -0.01162282        -4.24129
0.388                -0.01194641       -4.285063
0.392                -0.01225684       -4.328775
0.396                  -0.012552       -4.372431
0.4                  -0.01283078       -4.416037
0.404                -0.01309312       -4.459601
0.408                -0.01333894       -4.503128
0.412                -0.01356555       -4.546627
0.416                -0.01377342       -4.590105
0.42                 -0.01396242       -4.633569
0.424                -0.01412935       -4.677028
0.428                -0.01427671        -4.72049
0.432                -0.01440331       -4.763964
0.436                -0.01450803       -4.807458
0.44                  -0.0145897        -4.85098
0.444                -0.01465077       -4.894541
0.448                -0.01468852       -4.938148
0.452                -0.01470437       -4.981811
0.456                -0.01469713        -5.02554
0.46                 -0.01466769       -5.069342
0.464                -0.01461693       -5.113229
0.468                -0.01454264       -5.157207
0.472                 -0.0144467       -5.201287
0.476                -0.01432898       -5.245478
0.48                 -0.01419085       -5.289788
0.484                -0.01403059       -5.334226
0.488                -0.01385168       -5.378801
0.492                -0.01365186       -5.423521
0.496                -0.01343408       -5.468394
0.5                   -0.0131966       -5.513429
0.504                -0.01294238       -5.558632
0.508                -0.01267125       -5.604012
0.512                -0.01238406       -5.649575
0.516                -0.01208222       -5.695328
0.52                 -0.01176658       -5.741279
0.524                -0.01143753       -5.787431
0.528                -0.01109799       -5.833793
0.532                -0.01074783       -5.880368
0.536                -0.01038688       -5.927162
0.54                 -0.01001862        -5.97418
0.544               -0.009641877       -6.021425
0.548               -0.009261697       -6.068901
0.552               -0.008874331        -6.11661
0.556               -0.008485852       -6.164558
0.56                -0.008095111       -6.212744
0.564                -0.00770303       -6.261171
0.568               -0.007312093       -6.309841
0.572               -0.006923757       -6.358754
0.576               -0.006538448        -6.40791
0.58                -0.006159702        -6.45731
0.584               -0.005783827       -6.506952
0.588               -0.005417998       -6.556836
0.592               -0.005060102        -6.60696
0.596               -0.004712155       -6.657321
0.6                 -0.004375646       -6.707919
0.604               -0.004052106       -6.758751
0.608               -0.003742076        -6.80981
0.612               -0.003447042       -6.861095
0.616               -0.003168047       -6.912602
0.62                -0.002907718       -6.964325
0.624               -0.002662912        -7.01626
0.628               -0.002438885       -7.068402
0.632               -0.002234587       -7.120745
0.636               -0.002051136       -7.173281
0.64                -0.001889617       -7.226006
0.644               -0.001751074       -7.278915
0.648               -0.001636215       -7.331995
0.652               -0.001545513       -7.385245
0.656               -0.001478086       -7.438654
0.66                -0.001436568       -7.492218
0.664               -0.001419556       -7.545925
0.668               -0.001429231       -7.599769
0.672               -0.001465689       -7.653743
0.676               -0.001525953       -7.707837
0.68                -0.001614798       -7.762045
0.684               -0.001729752       -7.816359
0.688               -0.001872558       -7.870769
0.692               -0.002039694       -7.925267
0.696                -0.00223392       -7.979846
0.7                 -0.002453333       -8.034494
0.704               -0.002699554        -8.08921
0.708               -0.002970194       -8.143982
0.712                -0.00326646       -8.198802
0.716               -0.003585371       -8.253662
0.72                -0.003929662       -8.308558
0.724               -0.004296891       -8.363481
0.728               -0.004685663       -8.418424
0.732               -0.005096622       -8.473381
0.736               -0.005527355       -8.528345
0.74                -0.005977392       -8.583312
0.744               -0.006445885       -8.638275
0.748               -0.006932425        -8.69323
0.752               -0.007435604        -8.74817
0.756               -0.007953382       -8.803093
0.76                -0.008485872       -8.857996
0.764               -0.009030093       -8.912873
0.768               -0.009587127       -8.967722
0.772                 -0.0101534       -9.022541
0.776                -0.01072949       -9.077329
0.78                 -0.01131181       -9.132082
0.784                -0.01190089       -9.186803
0.788                -0.01249418       -9.241487
0.792                -0.01309164       -9.296138
0.796                -0.01369068       -9.350755
0.8                  -0.01428914       -9.405341
0.804                -0.01488708       -9.459894
0.808                -0.01548229        -9.51442
0.812                -0.01607311       -9.568921
0.816                -0.01665952         -9.6234
0.82                 -0.01723923       -9.677863
0.824                -0.01781012       -9.732311
0.828                -0.01837096       -9.786751
0.832                -0.01892159        -9.84119
0.836                -0.01945925       -9.895631
0.84                 -0.01998422       -9.950085
0.844                -0.02049578       -10.00456
0.848                -0.02099009       -10.05905
0.852                -0.02146739       -10.11358
0.856                -0.02192792       -10.16815
0.86                 -0.02236833       -10.22278
0.864                -0.02278984       -10.27746
0.868                -0.02319008       -10.33221
0.872                -0.02356972       -10.38705
0.876                -0.02392587       -10.44197
0.88                 -0.02426073         -10.497
0.884                -0.02457136       -10.55213
0.888                -0.02485839       -10.60739
0.892                -0.02512042       -10.66279
0.896                -0.02535964       -10.71833
0.9                    -0.025573       -10.77403
0.904                -0.02576065        -10.8299
0.908                 -0.0259242       -10.88596
0.912                -0.02606319       -10.94221
0.916                -0.02617724       -10.99866
0.92                 -0.02626634       -11.05533
0.924                -0.02633163       -11.11224
0.928                -0.02637319       -11.16939
0.932                -0.02639051       -11.22679
0.936                -0.02638525       -11.28445
0.94                 -0.02635747        -11.3424
0.944                -0.02630867       -11.40064
0.948                -0.02623955       -11.45917
0.952                -0.02614963       -11.51802
0.956                -0.02604152       -11.57719
0.96                 -0.02591581       -11.63669
0.964                -0.02577368       -11.69654
0.968                -0.02561718       -11.75674
0.972                -0.02544542        -11.8173
0.976                -0.02526107       -11.87823
0.98                 -0.02506531       -11.93954
0.984                -0.02486031       -12.00124
0.988                -0.02464665       -12.06333
0.992                 -0.0244266       -12.12583
0.996                -0.02420143       -12.18873
1                    -0.02397166       -12.25204
1.004                -0.02374124       -12.31578
1.008                -0.02351029       -12.37994
1.012                -0.02328111       -12.44452
1.016                -0.02305599       -12.50954
1.02                 -0.02283523         -12.575
1.024                -0.02262114       -12.64089
1.028                -0.02241763       -12.70722
1.032                -0.02222347       -12.77399
1.036                -0.02204153       -12.84121
1.04                 -0.02187377       -12.90886
1.044                -0.02172364       -12.97696
1.048                 -0.0215892       -13.04551
1.052                -0.02147495       -13.11447
1.056                -0.02138162       -13.18387
1.06                 -0.02131167       -13.25373
1.064                -0.02126623       -13.32397
1.068                -0.02124647       -13.39467
1.072                -0.02125457       -13.46579
1.076                -0.02129198       -13.53732
1.08                 -0.02135964       -13.60925
1.084                 -0.0214594       -13.68162
1.088                -0.02159213       -13.75438
1.092                -0.02175914       -13.82749
1.096                -0.02196191       -13.90101
1.1                  -0.02220086       -13.97491
1.104                -0.02247835       -14.04917
1.108                -0.02279324       -14.12378
1.112                -0.02314793       -14.19875
1.116                -0.02354291       -14.27407
1.12                 -0.02397847       -14.34973
1.124                -0.02445556       -14.42573
1.128                -0.02497384         -14.502
1.132                -0.02553388        -14.5786
1.136                  -0.026137        -14.6555
1.14                 -0.02678307       -14.73268
1.144                -0.02747015       -14.81014
1.148                -0.02820029       -14.88787
1.152                 -0.0289733       -14.96586
1.156                -0.02978744       -15.04409
1.16                 -0.03064347       -15.12257
1.164                 -0.0315411       -15.20128
1.168                -0.03247904       -15.28021
1.172                -0.03345809       -15.35936
1.176                -0.03447526       -15.43872
1.18                 -0.03553156       -15.51827
1.184                -0.03662539       -15.59801
1.188                -0.03775549       -15.67794
1.192                -0.03892099       -15.75805
1.196                -0.04012157       -15.83833
1.2                  -0.04135478       -15.91877
1.204                -0.04261862       -15.99938
1.208                -0.04391413       -16.08014
1.212                -0.04523754       -16.16106
1.216                -0.04658897       -16.24212
1.22                 -0.04796622       -16.32334
1.224                -0.04936592        -16.4047
1.228                -0.05078922        -16.4862
1.232                -0.05223324       -16.56785
1.236                  -0.053696       -16.64964
1.24                 -0.05517562       -16.73157
1.244                -0.05667031       -16.81365
1.248                 -0.0581789       -16.89589
1.252                -0.05969959       -16.97827
1.256                -0.06122863       -17.06081
1.26                 -0.06276642       -17.14352
1.264                -0.06430998       -17.22639
1.268                -0.06585811       -17.30944
1.272                -0.06740763       -17.39267
1.276                -0.06895842       -17.47609
1.28                 -0.07050813       -17.55971
1.284                -0.07205424       -17.64353
1.288                -0.07359561       -17.72758
1.292                -0.07513168       -17.81186
1.296                -0.07665976       -17.89638
1.3                  -0.07817782       -17.98116
1.304                 -0.0796861       -18.06621
1.308                -0.08118139       -18.15154
1.312                -0.08266434       -18.23718
1.316                -0.08413225       -18.32313
1.32                 -0.08558468       -18.40941
1.324                -0.08702074       -18.49604
1.328                -0.08843919       -18.58304
1.332                -0.08984001       -18.67042
1.336                -0.09122086       -18.75821
1.34                 -0.09258324       -18.84642
1.344                -0.09392594       -18.93506
1.348                -0.09524736       -19.02418
1.352                -0.09654938       -19.11377
1.356                -0.09783096       -19.20387
1.36                 -0.09909242       -19.29449
1.364                 -0.1003341       -19.38566
1.368                 -0.1015563       -19.47738
1.372                 -0.1027587        -19.5697
1.376                 -0.1039424       -19.66263
1.38                  -0.1051104       -19.75619
1.384                 -0.1062602       -19.85039
1.388                 -0.1073939       -19.94527
1.392                 -0.1085143       -20.04085
1.396                 -0.1096215       -20.13714
1.4                   -0.1107168       -20.23417
1.404                 -0.1118024       -20.33195
1.408                 -0.1128796       -20.43051
1.412                 -0.1139505       -20.52986
1.416                 -0.1150175       -20.63004
1.42                  -0.1160815       -20.73105
1.424                 -0.1171462       -20.83291
1.428                 -0.1182134       -20.93565
1.432                 -0.1192856       -21.03928
1.436                 -0.1203651       -21.14381
1.44                  -0.1214551       -21.24928
1.444                 -0.1225591       -21.35568
1.448                 -0.1236769       -21.46303
1.452                 -0.1248158       -21.57136
1.456                 -0.1259746       -21.68067
1.46                  -0.1271597       -21.79098
1.464                 -0.1283725       -21.90229
1.468                 -0.1296175       -22.01463
1.472                 -0.1308967         -22.128
1.476                 -0.1322144        -22.2424
1.48                  -0.1335731       -22.35786
1.484                 -0.1349773       -22.47437
1.488                 -0.1364295       -22.59195
1.492                 -0.1379327        -22.7106
1.496                 -0.1394914       -22.83033
1.5                   -0.1411097       -22.95113
1.504                 -0.1427896       -23.07303
1.508                 -0.1445347       -23.19601
1.512                 -0.1463486       -23.32008
1.516                 -0.1482342       -23.44524
1.52                  -0.1501965       -23.57149
1.524                  -0.152237       -23.69884
1.528                 -0.1543597       -23.82727
1.532                 -0.1565674       -23.95679
1.536                 -0.1588632        -24.0874
1.54                  -0.1612513        -24.2191
1.544                 -0.1637329       -24.35187
1.548                  -0.166312       -24.48572
1.552                 -0.1689906       -24.62063
1.556                 -0.1717724       -24.75661
1.56                  -0.1746583       -24.89365
1.564                  -0.177652       -25.03174
1.568                 -0.1807566       -25.17088
1.572                 -0.1839722       -25.31105
1.576                 -0.1873028       -25.45225
1.58                  -0.1907486       -25.59448
1.584                 -0.1943135       -25.73772
1.588                 -0.1979975       -25.88197
1.592                 -0.2018035       -26.02721
1.596                 -0.2057323       -26.17345
1.6                   -0.2097843       -26.32067
1.604                 -0.2139626       -26.46886
1.608                  -0.218266       -26.61802
1.612                 -0.2226972       -26.76814
1.616                 -0.2272568       -26.91921
1.62                  -0.2319442       -27.07123
1.624                 -0.2367614       -27.22418
1.628                  -0.241708       -27.37807
1.632                 -0.2467839       -27.53288
1.636                 -0.2519889       -27.68861
1.64                  -0.2573252       -27.84527
1.644                 -0.2627902       -28.00284
1.648                 -0.2683842       -28.16132
1.652                 -0.2741078        -28.3207
1.656                 -0.2799597       -28.48101
1.66                  -0.2859385       -28.64221
1.664                 -0.2920453       -28.80433
1.668                 -0.2982781       -28.96736
1.672                 -0.3046362       -29.13131
1.676                 -0.3111193       -29.29618
1.68                  -0.3177261       -29.46198
1.684                 -0.3244557       -29.62871
1.688                 -0.3313068       -29.79638
1.692                 -0.3382769       -29.96501
1.696                 -0.3453678        -30.1346
1.7                   -0.3525775       -30.30517
1.704                 -0.3599029       -30.47673
1.708                 -0.3673455        -30.6493
1.712                 -0.3749004       -30.82289
1.716                 -0.3825711       -30.99753
1.72                  -0.3903546       -31.17324
1.724                 -0.3982489       -31.35003
1.728                 -0.4062535       -31.52793
1.732                 -0.4143697       -31.70697
1.736                 -0.4225944       -31.88718
1.74                  -0.4309269       -32.06858
1.744                 -0.4393683       -32.25121
1.748                 -0.4479193        -32.4351
1.752                 -0.4565767       -32.62028
1.756                  -0.465341       -32.80678
1.76                  -0.4742133       -32.99466
1.764                 -0.4831945       -33.18394
1.768                 -0.4922849       -33.37466
1.772                 -0.5014855       -33.56688
1.776                  -0.510796       -33.76062
1.78                  -0.5202176       -33.95594
1.784                 -0.5297544       -34.15289
1.788                 -0.5394057        -34.3515
1.792                 -0.5491763       -34.55185
1.796                 -0.5590646       -34.75397
1.8                   -0.5690758        -34.9579
1.804                 -0.5792148       -35.16372
1.808                 -0.5894822       -35.37147
1.812                 -0.5998821       -35.58121
1.816                 -0.6104204         -35.793
1.82                   -0.621099       -36.00688
1.824                 -0.6319249       -36.22292
1.828                 -0.6429023       -36.44118
1.832                  -0.654038       -36.66173
1.836                 -0.6653371       -36.88461
1.84                  -0.6768046       -37.10988
1.844                 -0.6884508       -37.33762
1.848                 -0.7002811       -37.56787
1.852                 -0.7123028       -37.80071
1.856                 -0.7245237       -38.03619
1.86                  -0.7369552       -38.27437
1.864                  -0.749603       -38.51532
1.868                 -0.7624804        -38.7591
1.872                 -0.7755927       -39.00577
1.876                 -0.7889546       -39.25539
1.88                  -0.8025729       -39.50801
1.884                 -0.8164626        -39.7637
1.888                  -0.830632       -40.02252
1.892                 -0.8450959       -40.28452
1.896                 -0.8598679       -40.54978
1.9                   -0.8749578       -40.81832
1.904                 -0.8903811       -41.09023
1.908                 -0.9061501       -41.36555
1.912                 -0.9222815       -41.64433
1.916                 -0.9387894       -41.92663
1.92                  -0.9556887        -42.2125
1.924                 -0.9729941       -42.50198
1.928                 -0.9907237       -42.79514
1.932                  -1.008893         -43.092
1.936                   -1.02752       -43.39264
1.94                   -1.046621       -43.69707
1.944                  -1.066213       -44.00536
1.948                  -1.086316       -44.31752
1.952                  -1.106948       -44.63362
1.956                  -1.128127       -44.95369
1.96                   -1.149873       -45.27774
1.964                  -1.172207       -45.60585
1.968                  -1.195148       -45.93801
1.972                  -1.218718       -46.27429
1.976                  -1.242934       -46.61468
1.98                   -1.267821       -46.95924
1.984                    -1.2934       -47.30797
1.988                  -1.319693        -47.6609
1.992                  -1.346721       -48.01807
1.996                  -1.374508       -48.37947
2                      -1.403077       -48.74514
2.004                  -1.432452       -49.11509
2.008                  -1.462657       -49.48933
2.012                  -1.493713       -49.86788
2.016                  -1.525648       -50.25073
2.02                   -1.558487       -50.63792
2.024                  -1.592255       -51.02944
2.028                  -1.626975       -51.42531
2.032                  -1.662676        -51.8255
2.036                  -1.699385       -52.23005
2.04                   -1.737127       -52.63894
2.044                  -1.775929       -53.05217
2.048                   -1.81582       -53.46974
2.052                  -1.856829       -53.89165
2.056                  -1.898983       -54.31789
2.06                   -1.942312       -54.74846
2.064                  -1.986846       -55.18334
2.068                  -2.032613       -55.62253
2.072                  -2.079645       -56.06602
2.076                  -2.127971       -56.51379
2.08                   -2.177628       -56.96583
2.084                  -2.228641       -57.42213
2.088                  -2.281048       -57.88267
2.092                  -2.334882       -58.34744
2.096                  -2.390173       -58.81642
2.1                     -2.44696       -59.28959
2.104                  -2.505276       -59.76692
2.108                  -2.565159       -60.24842
2.112                  -2.626643       -60.73405
2.116                   -2.68977        -61.2238
2.12                   -2.754577       -61.71765
2.124                    -2.8211       -62.21555
2.128                  -2.889385       -62.71751
2.132                   -2.95947       -63.22352
2.136                    -3.0314       -63.73351
2.14                   -3.105216        -64.2475
2.144                  -3.180966       -64.76545
2.148                  -3.258695       -65.28736
2.152                  -3.338449       -65.81317
2.156                  -3.420279       -66.34288
2.16                   -3.504235       -66.87649
2.164                  -3.590369       -67.41395
2.168                  -3.678735       -67.95526
2.172                   -3.76939        -68.5004
2.176                   -3.86239       -69.04934
2.18                   -3.957795       -69.60208
2.184                  -4.055667       -70.15859
2.188                  -4.156069       -70.71889
2.192                   -4.25907       -71.28294
2.196                  -4.364736       -71.85073
2.2                    -4.473143       -72.42228
2.204                  -4.584363       -72.99755
2.208                  -4.698475       -73.57657
2.212                  -4.815561       -74.15933
2.216                  -4.935706       -74.74583
2.22                      -5.059       -75.33609
2.224                  -5.185535        -75.9301
2.228                  -5.315411       -76.52791
2.232                  -5.448729       -77.12954
2.236                  -5.585599       -77.73499
2.24                   -5.726131       -78.34433
2.244                  -5.870449       -78.95757
2.248                  -6.018677       -79.57476
2.252                  -6.170951       -80.19599
2.256                  -6.327408       -80.82128
2.26                   -6.488201       -81.45075
2.264                  -6.653486       -82.08446
2.268                  -6.823432       -82.72251
2.272                  -6.998217       -83.36502
2.276                  -7.178033       -84.01213
2.28                   -7.363083       -84.66397
2.284                  -7.553582       -85.32071
2.288                  -7.749766       -85.98253
2.292                  -7.951881       -86.64967
2.296                  -8.160195       -87.32234
2.3                    -8.374998       -88.00085
2.304                  -8.596599       -88.68545
2.308                  -8.825334       -89.37656
2.312                  -9.061568       -90.07452
2.316                  -9.305692       -90.77981
2.32                   -9.558138       -91.49293
2.324                  -9.819375       -92.21448
2.328                  -10.08991       -92.94511
2.332                  -10.37032       -93.68562
2.336                   -10.6612       -94.43684
2.34                   -10.96325       -95.19982
2.344                  -11.27722       -95.97572
2.348                  -11.60394       -96.76595
2.352                  -11.94436       -97.57205
2.356                  -12.29953       -98.39592
2.36                   -12.67061       -99.23978
2.364                  -13.05895       -100.1062
2.368                  -13.46606       -100.9985
2.372                  -13.89366       -101.9202
2.376                  -14.34374        -102.876
2.38                   -14.81859       -103.8716
2.384                  -15.32089       -104.9139
2.388                  -15.85375       -106.0115
2.392                  -16.42088       -107.1754
2.396                  -17.02669       -108.4199
2.4                    -17.67648       -109.7632
2.404                   -18.3767       -111.2299