! TOUCHSTONE file generated by CST MICROWAVE STUDIO
! Date and time: Fri May  6 15:38:59 2022
! Project name: ant1_ceramic_sweep_fr4.cst
! Parameters = {e=0.035; h=1.6; i=0.8; l1=0.5; l2=20.96; ls=80; wl=1.7; ws=29.7}
! Header version: 2018
! Port assignment regex: !\s*Touchstone port\s*([0-9]+)\s*=\s*(CST MWS port|CST DS port)\s*([0-9]+|Zmin|Zmax)\s*\(\"(.*)\"\)(\s*mode\s*([0-9]+))?.*
! Touchstone port assignment:
! Touchstone port 1 = CST MWS port 1 ("")
# GHz S DB R 50
0                     -0.0138476              -0
0.004                -0.01383714     -0.04046508
0.008                -0.01380471     -0.08093861
0.012                -0.01375135       -0.121429
0.016                -0.01367601      -0.1619445
0.02                 -0.01358024      -0.2024936
0.024                -0.01346297      -0.2430844
0.028                -0.01332524      -0.2837249
0.032                -0.01316857       -0.324423
0.036                -0.01299138      -0.3651866
0.04                 -0.01279624      -0.4060233
0.044                 -0.0125826      -0.4469402
0.048                -0.01235145      -0.4879446
0.052                -0.01210277      -0.5290435
0.056                -0.01183806      -0.5702432
0.06                 -0.01155832      -0.6115502
0.064                -0.01126403      -0.6529704
0.068                -0.01095617      -0.6945097
0.072                -0.01063625      -0.7361731
0.076                 -0.0103037      -0.7779656
0.08                -0.009961067      -0.8198922
0.084               -0.009608807      -0.8619567
0.088               -0.009248941       -0.904163
0.092               -0.008880375      -0.9465147
0.096               -0.008507201      -0.9890146
0.1                 -0.008127807       -1.031665
0.104               -0.007744725       -1.074469
0.108               -0.007359973       -1.117428
0.112               -0.006972974       -1.160542
0.116               -0.006587299       -1.203814
0.12                -0.006200302       -1.247242
0.124               -0.005817109       -1.290828
0.128                -0.00543715       -1.334571
0.132                -0.00506089        -1.37847
0.136               -0.004691387       -1.422523
0.14                -0.004328076       -1.466729
0.144               -0.003972982       -1.511085
0.148               -0.003626582        -1.55559
0.152               -0.003292459       -1.600239
0.156               -0.002967988        -1.64503
0.16                -0.002656758       -1.689959
0.164               -0.002357703       -1.735022
0.168               -0.002072869       -1.780214
0.172               -0.001803783       -1.825531
0.176               -0.001551465       -1.870967
0.18                -0.001314858       -1.916517
0.184               -0.001096028       -1.962175
0.188              -0.0008954804       -2.007936
0.192              -0.0007142523       -2.053792
0.196              -0.0005518247       -2.099738
0.2                -0.0004092404       -2.145767
0.204              -0.0002896118       -2.191872
0.208              -0.0001877815       -2.238046
0.212              -0.0001094631       -2.284282
0.216              -5.105654e-05       -2.330573
0.22               -1.517603e-05       -2.376911
0.224              -3.010985e-07       -2.423289
0.228               -8.54156e-06       -2.469699
0.232              -3.889936e-05       -2.516135
0.236              -9.038308e-05       -2.562588
0.24                 -0.00016408       -2.609051
0.244              -0.0002590036       -2.655516
0.248              -0.0003746871       -2.701977
0.252               -0.000512745       -2.748427
0.256              -0.0006706476       -2.794858
0.26               -0.0008489765       -2.841262
0.264               -0.001047278       -2.887634
0.268               -0.001265098       -2.933968
0.272               -0.001500438       -2.980255
0.276               -0.001753879       -3.026492
0.28                -0.002023941        -3.07267
0.284               -0.002310695       -3.118786
0.288               -0.002613173       -3.164834
0.292               -0.002930411       -3.210809
0.296               -0.003260926       -3.256705
0.3                 -0.003603224        -3.30252
0.304               -0.003958422       -3.348249
0.308               -0.004323463       -3.393888
0.312               -0.004697894       -3.439435
0.316               -0.005080746       -3.484887
0.32                -0.005471551       -3.530241
0.324               -0.005866219       -3.575495
0.328               -0.006267391       -3.620649
0.332               -0.006672523       -3.665701
0.336               -0.007078025       -3.710651
0.34                -0.007486007       -3.755498
0.344               -0.007892879       -3.800243
0.348               -0.008300212       -3.844887
0.352               -0.008703374        -3.88943
0.356               -0.009102884       -3.933876
0.36                -0.009497715       -3.978226
0.364               -0.009886328       -4.022482
0.368                -0.01026662       -4.066649
0.372                -0.01063914       -4.110727
0.376                -0.01100123       -4.154724
0.38                 -0.01135289       -4.198642
0.384                -0.01169253       -4.242487
0.388                -0.01201908       -4.286263
0.392                -0.01233145       -4.329976
0.396                -0.01262854       -4.373633
0.4                  -0.01291134        -4.41724
0.404                -0.01317616       -4.460803
0.408                -0.01342238       -4.504329
0.412                -0.01365202       -4.547825
0.416                -0.01386187         -4.5913
0.42                 -0.01405132        -4.63476
0.424                -0.01422129       -4.678215
0.428                -0.01437065       -4.721673
0.432                -0.01449825        -4.76514
0.436                -0.01460395       -4.808629
0.44                 -0.01468764       -4.852145
0.444                 -0.0147492       -4.895699
0.448                -0.01478848       -4.939299
0.452                -0.01480535       -4.982955
0.456                -0.01479912       -5.026675
0.46                 -0.01476967        -5.07047
0.464                 -0.0147189       -5.114348
0.468                -0.01464511       -5.158318
0.472                -0.01454969        -5.20239
0.476                -0.01443196       -5.246572
0.48                 -0.01429329       -5.290874
0.484                -0.01413356       -5.335304
0.488                -0.01395359       -5.379871
0.492                -0.01375377       -5.424583
0.496                -0.01353389       -5.469449
0.5                  -0.01329588       -5.514476
0.504                -0.01304163       -5.559673
0.508                -0.01276839       -5.605046
0.512                -0.01248066       -5.650603
0.516                 -0.0121767        -5.69635
0.52                 -0.01186049       -5.742296
0.524                -0.01152981       -5.788445
0.528                -0.01118761       -5.834803
0.532                -0.01083425       -5.881375
0.536                -0.01047217       -5.928167
0.54                  -0.0101007       -5.975182
0.544               -0.009722802       -6.022426
0.548               -0.009338851       -6.069903
0.552               -0.008950283       -6.117614
0.556               -0.008558527       -6.165563
0.56                -0.008163977       -6.213751
0.564               -0.007770657       -6.262183
0.568               -0.007376912       -6.310856
0.572               -0.006985222       -6.359775
0.576               -0.006597581       -6.408938
0.58                -0.006213883       -6.458346
0.584               -0.005837186       -6.507997
0.588               -0.005468443       -6.557891
0.592               -0.005106558       -6.608026
0.596               -0.004756153       -6.658401
0.6                  -0.00441719       -6.709012
0.604               -0.004090126       -6.759857
0.608               -0.003778064       -6.810933
0.612               -0.003479981       -6.862235
0.616               -0.003196358       -6.913758
0.62                  -0.0029329       -6.965501
0.624               -0.002686017       -7.017455
0.628               -0.002458809       -7.069618
0.632               -0.002251861       -7.121982
0.636               -0.002066758       -7.174542
0.64                -0.001902502       -7.227291
0.644               -0.001761763       -7.280223
0.648                -0.00164306        -7.33333
0.652               -0.001550097       -7.386606
0.656               -0.001481377       -7.440044
0.66                -0.001437582       -7.493634
0.664               -0.001418748        -7.54737
0.668                 -0.0014276       -7.601244
0.672               -0.001461653       -7.655249
0.676               -0.001521571       -7.709375
0.68                -0.001609018       -7.763615
0.684               -0.001722051        -7.81796
0.688               -0.001862415       -7.872401
0.692               -0.002030175       -7.926932
0.696               -0.002222946       -7.981543
0.7                 -0.002442397       -8.036227
0.704               -0.002687675       -8.090975
0.708               -0.002958368       -8.145781
0.712               -0.003254129       -8.200636
0.716               -0.003574117        -8.25553
0.72                -0.003918412       -8.310461
0.724               -0.004285141       -8.365418
0.728               -0.004674942       -8.420395
0.732               -0.005085913       -8.475386
0.736               -0.005517654       -8.530384
0.74                 -0.00596924       -8.585385
0.744               -0.006439311       -8.640381
0.748               -0.006926869       -8.695369
0.752                 -0.0074321       -8.750342
0.756               -0.007950404       -8.805297
0.76                -0.008485499       -8.860232
0.764               -0.009031806       -8.915139
0.768               -0.009589911       -8.970018
0.772                -0.01015932       -9.024868
0.776                -0.01073651       -9.079683
0.78                 -0.01132147       -9.134465
0.784                -0.01191425       -9.189213
0.788                -0.01251021       -9.243925
0.792                -0.01310986         -9.2986
0.796                -0.01371108       -9.353243
0.8                  -0.01431283       -9.407851
0.804                -0.01491403       -9.462428
0.808                -0.01551252       -9.516976
0.812                -0.01610614       -9.571498
0.816                -0.01669586       -9.625997
0.82                 -0.01727738       -9.680478
0.824                 -0.0178522       -9.734943
0.828                -0.01841746       -9.789402
0.832                -0.01897049       -9.843855
0.836                -0.01951262       -9.898313
0.84                 -0.02004006       -9.952778
0.844                -0.02055411       -10.00726
0.848                -0.02105089       -10.06177
0.852                 -0.0215328       -10.11631
0.856                -0.02199536       -10.17089
0.86                 -0.02243939       -10.22552
0.864                -0.02286401       -10.28021
0.868                -0.02326736       -10.33497
0.872                -0.02364862       -10.38981
0.876                -0.02400897       -10.44474
0.88                 -0.02434496       -10.49977
0.884                -0.02465832       -10.55491
0.888                -0.02494758       -10.61017
0.892                -0.02521287       -10.66557
0.896                -0.02545331       -10.72111
0.9                   -0.0256684       -10.77681
0.904                -0.02585884       -10.83268
0.908                -0.02602415       -10.88873
0.912                -0.02616389       -10.94498
0.916                -0.02627868       -11.00143
0.92                  -0.0263696        -11.0581
0.924                -0.02643564         -11.115
0.928                -0.02647694       -11.17214
0.932                -0.02649503       -11.22954
0.936                -0.02649004        -11.2872
0.94                 -0.02646294       -11.34515
0.944                -0.02641394       -11.40338
0.948                -0.02634455       -11.46191
0.952                -0.02625431       -11.52075
0.956                -0.02614694       -11.57992
0.96                 -0.02601986       -11.63942
0.964                -0.02587634       -11.69927
0.968                 -0.0257179       -11.75946
0.972                -0.02554479       -11.82002
0.976                -0.02535899       -11.88095
0.98                 -0.02516224       -11.94226
0.984                -0.02495469       -12.00396
0.988                -0.02474004       -12.06605
0.992                 -0.0245159       -12.12855
0.996                -0.02428801       -12.19145
1                    -0.02405769       -12.25477
1.004                -0.02382295       -12.31851
1.008                -0.02358974       -12.38268
1.012                -0.02335722       -12.44727
1.016                -0.02312816        -12.5123
1.02                 -0.02290504       -12.57776
1.024                -0.02268742       -12.64367
1.028                -0.02247933       -12.71001
1.032                -0.02228208       -12.77679
1.036                  -0.022096       -12.84402
1.04                 -0.02192499       -12.91169
1.044                  -0.021769       -12.97981
1.048                -0.02163172       -13.04838
1.052                -0.02151329       -13.11734
1.056                -0.02141688       -13.18679
1.06                 -0.02134217       -13.25665
1.064                -0.02129213       -13.32695
1.068                -0.02126865       -13.39768
1.072                -0.02127258       -13.46882
1.076                -0.02130573       -13.54038
1.08                 -0.02136919       -13.61237
1.084                -0.02146414       -13.68474
1.088                -0.02159358       -13.75752
1.092                -0.02175633       -13.83069
1.096                -0.02195537       -13.90423
1.1                  -0.02219058       -13.97819
1.104                -0.02246321        -14.0525
1.108                -0.02277585       -14.12717
1.112                 -0.0231267       -14.20219
1.116                -0.02351834       -14.27757
1.12                 -0.02395054       -14.35325
1.124                -0.02442424       -14.42926
1.128                 -0.0249403       -14.50562
1.132                -0.02549768       -14.58227
1.136                -0.02609826       -14.65922
1.14                 -0.02674139       -14.73646
1.144                -0.02742687       -14.81398
1.148                -0.02815482       -14.89177
1.152                -0.02892531       -14.96981
1.156                 -0.0297387       -15.04811
1.16                 -0.03059346       -15.12665
1.164                -0.03149028       -15.20543
1.168                -0.03242847       -15.28443
1.172                -0.03340608       -15.36364
1.176                -0.03442307       -15.44305
1.18                 -0.03547874       -15.52268
1.184                -0.03657313       -15.60249
1.188                -0.03770433       -15.68248
1.192                -0.03887031       -15.76266
1.196                -0.04007185         -15.843
1.2                  -0.04130593       -15.92352
1.204                -0.04257273       -16.00419
1.208                -0.04386869       -16.08502
1.212                -0.04519551       -16.16601
1.216                -0.04654847       -16.24714
1.22                 -0.04792864       -16.32842
1.224                -0.04933287       -16.40985
1.228                -0.05075861       -16.49142
1.232                -0.05220569       -16.57313
1.236                -0.05367232       -16.65499
1.24                 -0.05515593       -16.73699
1.244                -0.05665623       -16.81914
1.248                -0.05816841       -16.90144
1.252                -0.05969358       -16.98389
1.256                -0.06122803       -17.06649
1.26                 -0.06277097       -17.14926
1.264                -0.06431932       -17.23219
1.268                -0.06587278       -17.31529
1.272                -0.06742844       -17.39858
1.276                -0.06898524       -17.48206
1.28                 -0.07054028       -17.56573
1.284                -0.07209335       -17.64962
1.288                 -0.0736423       -17.73372
1.292                -0.07518311       -17.81804
1.296                -0.07671873       -17.90262
1.3                  -0.07824338       -17.98745
1.304                -0.07975741       -18.07254
1.308                -0.08126049       -18.15793
1.312                -0.08275004       -18.24361
1.316                 -0.0842247        -18.3296
1.32                 -0.08568419       -18.41592
1.324                -0.08712712        -18.5026
1.328                -0.08855274       -18.58963
1.332                -0.08996022       -18.67705
1.336                -0.09134828       -18.76488
1.34                 -0.09271696       -18.85312
1.344                -0.09406567        -18.9418
1.348                -0.09539508       -19.03095
1.352                -0.09670308       -19.12057
1.356                -0.09799095        -19.2107
1.36                 -0.09925935       -19.30135
1.364                 -0.1005071       -19.39254
1.368                 -0.1017358       -19.48429
1.372                 -0.1029448       -19.57664
1.376                 -0.1041346       -19.66959
1.38                  -0.1053065       -19.76317
1.384                 -0.1064628        -19.8574
1.388                 -0.1076027        -19.9523
1.392                 -0.1087271        -20.0479
1.396                 -0.1098398       -20.14421
1.4                   -0.1109397       -20.24126
1.404                 -0.1120298       -20.33906
1.408                 -0.1131113       -20.43764
1.412                 -0.1141863       -20.53702
1.416                 -0.1152573       -20.63721
1.42                  -0.1163248       -20.73824
1.424                 -0.1173932       -20.84012
1.428                 -0.1184631       -20.94288
1.432                 -0.1195382       -21.04653
1.436                 -0.1206216       -21.15109
1.44                  -0.1217132       -21.25657
1.444                 -0.1228186         -21.363
1.448                 -0.1239402       -21.47038
1.452                 -0.1250791       -21.57873
1.456                 -0.1262396       -21.68806
1.46                  -0.1274261        -21.7984
1.464                 -0.1286399       -21.90974
1.468                 -0.1298862       -22.02211
1.472                 -0.1311657       -22.13551
1.476                 -0.1324839       -22.24995
1.48                  -0.1338425       -22.36544
1.484                 -0.1352463       -22.48198
1.488                 -0.1366981        -22.5996
1.492                 -0.1382023       -22.71829
1.496                 -0.1397607       -22.83806
1.5                   -0.1413777       -22.95891
1.504                  -0.143057       -23.08085
1.508                 -0.1448012       -23.20388
1.512                 -0.1466147       -23.32801
1.516                 -0.1485001       -23.45322
1.52                  -0.1504606       -23.57953
1.524                 -0.1525006       -23.70694
1.528                 -0.1546226       -23.83543
1.532                 -0.1568292       -23.96502
1.536                 -0.1591248        -24.0957
1.54                  -0.1615116       -24.22747
1.544                 -0.1639932       -24.36031
1.548                 -0.1665717       -24.49423
1.552                 -0.1692496       -24.62923
1.556                  -0.172031       -24.76529
1.56                  -0.1749166       -24.90241
1.564                 -0.1779126        -25.0406
1.568                 -0.1810155       -25.17982
1.572                 -0.1842329       -25.32009
1.576                 -0.1875636       -25.46139
1.58                  -0.1910116       -25.60371
1.584                 -0.1945773       -25.74706
1.588                 -0.1982636       -25.89141
1.592                 -0.2020708       -26.03676
1.596                 -0.2060012        -26.1831
1.6                   -0.2100573       -26.33044
1.604                 -0.2142379       -26.47874
1.608                 -0.2185454       -26.62802
1.612                 -0.2229809       -26.77826
1.616                 -0.2275455       -26.92945
1.62                  -0.2322392       -27.08159
1.624                 -0.2370612       -27.23467
1.628                  -0.242014       -27.38868
1.632                 -0.2470954       -27.54362
1.636                 -0.2523083       -27.69949
1.64                  -0.2576526       -27.85627
1.644                 -0.2631257       -28.01397
1.648                 -0.2687287       -28.17259
1.652                 -0.2744618       -28.33211
1.656                 -0.2803229       -28.49254
1.66                  -0.2863129       -28.65389
1.664                 -0.2924309       -28.81614
1.668                 -0.2986772       -28.97931
1.672                  -0.305047       -29.14339
1.676                 -0.3115442        -29.3084
1.68                  -0.3181646       -29.47433
1.684                  -0.324909        -29.6412
1.688                 -0.3317746       -29.80901
1.692                 -0.3387617       -29.97776
1.696                 -0.3458694       -30.14749
1.7                    -0.353096       -30.31819
1.704                 -0.3604387       -30.48988
1.708                 -0.3678989       -30.66258
1.712                 -0.3754746       -30.83629
1.716                 -0.3831647       -31.01106
1.72                  -0.3909681       -31.18688
1.724                 -0.3988832       -31.36379
1.728                 -0.4069093       -31.54181
1.732                  -0.415047       -31.72097
1.736                 -0.4232937       -31.90128
1.74                  -0.4316512        -32.0828
1.744                 -0.4401153       -32.26553
1.748                 -0.4486891       -32.44951
1.752                 -0.4573708       -32.63479
1.756                 -0.4661605       -32.82139
1.76                  -0.4750586       -33.00935
1.764                  -0.484065       -33.19872
1.768                 -0.4931812       -33.38952
1.772                 -0.5024071       -33.58181
1.776                 -0.5117434       -33.77563
1.78                  -0.5211928       -33.97102
1.784                 -0.5307566       -34.16803
1.788                 -0.5404344        -34.3667
1.792                 -0.5502308        -34.5671
1.796                 -0.5601472       -34.76926
1.8                   -0.5701856       -34.97324
1.804                 -0.5803511        -35.1791
1.808                 -0.5906462       -35.38688
1.812                  -0.601072       -35.59665
1.816                 -0.6116362       -35.80845
1.82                  -0.6223433       -36.02237
1.824                 -0.6331946       -36.23842
1.828                 -0.6441985       -36.45669
1.832                 -0.6553589       -36.67724
1.836                 -0.6666829       -36.90012
1.84                  -0.6781774       -37.12539
1.844                  -0.689847       -37.35311
1.848                 -0.7017011       -37.58335
1.852                 -0.7137458       -37.81617
1.856                 -0.7259913       -38.05164
1.86                  -0.7384453        -38.2898
1.864                 -0.7511144       -38.53072
1.868                 -0.7640121       -38.77446
1.872                 -0.7771453       -39.02109
1.876                 -0.7905256       -39.27067
1.88                  -0.8041638       -39.52325
1.884                 -0.8180696       -39.77889
1.888                  -0.832258       -40.03767
1.892                 -0.8467381       -40.29963
1.896                 -0.8615242       -40.56482
1.9                    -0.876628       -40.83332
1.904                 -0.8920644       -41.10518
1.908                 -0.9078466       -41.38044
1.912                 -0.9239877       -41.65916
1.916                 -0.9405058       -41.94141
1.92                  -0.9574132       -42.22722
1.924                 -0.9747272       -42.51665
1.928                 -0.9924624       -42.80975
1.932                  -1.010637       -43.10657
1.936                  -1.029268       -43.40714
1.94                   -1.048371       -43.71154
1.944                  -1.067965       -44.01976
1.948                  -1.088069       -44.33189
1.952                  -1.108698       -44.64795
1.956                  -1.129876       -44.96798
1.96                   -1.151619         -45.292
1.964                  -1.173947       -45.62007
1.968                  -1.196882       -45.95222
1.972                  -1.220443       -46.28847
1.976                  -1.244651       -46.62885
1.98                   -1.269529        -46.9734
1.984                  -1.295095       -47.32213
1.988                  -1.321375       -47.67507
1.992                  -1.348389       -48.03224
1.996                  -1.376161       -48.39367
2                      -1.404714       -48.75938
2.004                   -1.43407       -49.12937
2.008                  -1.464255       -49.50366
2.012                  -1.495291       -49.88226
2.016                  -1.527204       -50.26519
2.02                   -1.560019       -50.65246
2.024                  -1.593763       -51.04408
2.028                  -1.628457       -51.44003
2.032                  -1.664132       -51.84036
2.036                  -1.700812       -52.24503
2.04                   -1.738525       -52.65406
2.044                  -1.777297       -53.06745
2.048                  -1.817158        -53.4852
2.052                  -1.858133        -53.9073
2.056                  -1.900254       -54.33374
2.06                   -1.943548       -54.76453
2.064                  -1.988045       -55.19966
2.068                  -2.033775        -55.6391
2.072                  -2.080769       -56.08285
2.076                  -2.129058       -56.53091
2.08                   -2.178672       -56.98327
2.084                  -2.229647       -57.43991
2.088                  -2.282013       -57.90081
2.092                  -2.335802       -58.36595
2.096                  -2.391052       -58.83531
2.1                    -2.447795       -59.30891
2.104                  -2.506067        -59.7867
2.108                  -2.565903       -60.26867
2.112                  -2.627342       -60.75479
2.116                  -2.690422       -61.24506
2.12                   -2.755182       -61.73945
2.124                  -2.821658       -62.23792
2.128                  -2.889894        -62.7405
2.132                   -2.95993       -63.24713
2.136                  -3.031811        -63.7578
2.14                   -3.105578       -64.27247
2.144                  -3.181278       -64.79115
2.148                  -3.258957       -65.31383
2.152                   -3.33866       -65.84044
2.156                   -3.42044         -66.371
2.16                   -3.504345       -66.90548
2.164                  -3.590429       -67.44385
2.168                  -3.678744       -67.98611
2.172                  -3.769347       -68.53224
2.176                  -3.862296       -69.08223
2.18                   -3.957649       -69.63606
2.184                  -4.055469       -70.19371
2.188                  -4.155821       -70.75518
2.192                  -4.258771       -71.32046
2.196                  -4.364386       -71.88955
2.2                    -4.472743       -72.46243
2.204                  -4.583912        -73.0391
2.208                  -4.697975       -73.61959
2.212                  -4.815012       -74.20387
2.216                  -4.935109       -74.79196
2.22                   -5.058355       -75.38388
2.224                  -5.184843       -75.97963
2.228                  -5.314672       -76.57926
2.232                  -5.447944       -77.18276
2.236                  -5.584768       -77.79019
2.24                   -5.725258       -78.40156
2.244                  -5.869533       -79.01697
2.248                  -6.017719       -79.63642
2.252                  -6.169951          -80.26
2.256                  -6.326368       -80.88777
2.26                   -6.487123        -81.5198
2.264                   -6.65237       -82.15622
2.268                  -6.822281       -82.79711
2.272                  -6.997032        -83.4426
2.276                  -7.176816       -84.09281
2.28                   -7.361834       -84.74793
2.284                  -7.552305       -85.40812
2.288                   -7.74846       -86.07359
2.292                  -7.950549       -86.74453
2.296                   -8.15884       -87.42124
2.3                    -8.373621       -88.10399
2.304                  -8.595203        -88.7931
2.308                   -8.82392       -89.48896
2.312                  -9.060137       -90.19196
2.316                  -9.304248       -90.90259
2.32                   -9.556682       -91.62141
2.324                  -9.817909         -92.349
2.328                  -10.08844       -93.08609
2.332                  -10.36883       -93.83348
2.336                  -10.65971       -94.59206
2.34                   -10.96175       -95.36297
2.344                  -11.27571       -96.14739
2.348                  -11.60243       -96.94679
2.352                  -11.94284        -97.7628
2.356                  -12.29799       -98.59745
2.36                   -12.66905         -99.453
2.364                  -13.05736       -100.3322
2.368                  -13.46442       -101.2385
2.372                  -13.89196       -102.1756
2.376                  -14.34194       -103.1485
2.38                   -14.81667        -104.163
2.384                  -15.31879       -105.2264
2.388                  -15.85141       -106.3478
2.392                   -16.4182       -107.5387
2.396                  -17.02354       -108.8138
2.4                    -17.67267       -110.1925
2.404                  -18.37195       -111.7002