! TOUCHSTONE file generated by CST MICROWAVE STUDIO
! Date and time: Fri May  6 15:39:00 2022
! Project name: ant1_ceramic_sweep_fr4.cst
! Parameters = {e=0.035; h=1.6; i=0.8; l1=0.5; l2=20.96; ls=80; wl=1.7; ws=33}
! Header version: 2018
! Port assignment regex: !\s*Touchstone port\s*([0-9]+)\s*=\s*(CST MWS port|CST DS port)\s*([0-9]+|Zmin|Zmax)\s*\(\"(.*)\"\)(\s*mode\s*([0-9]+))?.*
! Touchstone port assignment:
! Touchstone port 1 = CST MWS port 1 ("")
# GHz S DB R 50
0                    -0.01401561              -0
0.004                -0.01400463     -0.04042738
0.008                -0.01397222     -0.08086328
0.012                -0.01391784      -0.1213162
0.016                -0.01384201      -0.1617946
0.02                 -0.01374471      -0.2023068
0.024                -0.01362749      -0.2428612
0.028                -0.01348877      -0.2834657
0.032                -0.01332956      -0.3241286
0.036                -0.01315037      -0.3648575
0.04                 -0.01295322      -0.4056602
0.044                -0.01273654      -0.4465441
0.048                -0.01250236      -0.4875163
0.052                -0.01225169      -0.5285838
0.056                -0.01198396      -0.5697534
0.06                 -0.01170121      -0.6110313
0.064                -0.01140391      -0.6524236
0.068                -0.01109253      -0.6939359
0.072                -0.01076754      -0.7355738
0.076                -0.01043251      -0.7773424
0.08                 -0.01008584       -0.819246
0.084               -0.009729551      -0.8612891
0.088                -0.00936462      -0.9034754
0.092               -0.008992546      -0.9458086
0.096               -0.008615346      -0.9882916
0.1                 -0.008230889       -1.030927
0.104               -0.007844299       -1.073717
0.108               -0.007453447       -1.116663
0.112               -0.007062938       -1.159767
0.116               -0.006672195       -1.203029
0.12                -0.006281683        -1.24645
0.124               -0.005893419        -1.29003
0.128               -0.005507347       -1.333769
0.132               -0.005128596       -1.377665
0.136               -0.004753491       -1.421717
0.14                -0.004386644       -1.465923
0.144                -0.00402801       -1.510281
0.148               -0.003677024        -1.55479
0.152               -0.003337794       -1.599444
0.156               -0.003009243       -1.644242
0.16                -0.002693928       -1.689178
0.164               -0.002391814       -1.734251
0.168               -0.002104433       -1.779453
0.172               -0.001831756       -1.824781
0.176               -0.001574801        -1.87023
0.18                -0.001335622       -1.915794
0.184               -0.001113692       -1.961468
0.188              -0.0009115916       -2.007244
0.192              -0.0007272441       -2.053118
0.196              -0.0005622092       -2.099082
0.2                -0.0004180424       -2.145129
0.204              -0.0002957908       -2.191254
0.208              -0.0001928801       -2.237448
0.212              -0.0001124392       -2.283705
0.216              -5.293328e-05       -2.330017
0.22               -1.594956e-05       -2.376376
0.224              -4.807254e-07       -2.422776
0.228              -7.601895e-06       -2.469209
0.232              -3.838803e-05       -2.515667
0.236              -8.926306e-05       -2.562142
0.24               -0.0001628601       -2.608627
0.244              -0.0002587158       -2.655115
0.248              -0.0003758446       -2.701598
0.252              -0.0005148252        -2.74807
0.256              -0.0006741685       -2.794522
0.26               -0.0008539377       -2.840947
0.264               -0.001053159        -2.88734
0.268               -0.001273452       -2.933693
0.272               -0.001510231           -2.98
0.276               -0.001766667       -3.026255
0.28                 -0.00203973       -3.072451
0.284               -0.002329485       -3.118584
0.288               -0.002634971       -3.164647
0.292               -0.002954186       -3.210636
0.296               -0.003288236       -3.256546
0.3                 -0.003634085       -3.302373
0.304               -0.003992836       -3.348112
0.308               -0.004361962       -3.393761
0.312               -0.004740489       -3.439317
0.316               -0.005126929       -3.484775
0.32                -0.005521335       -3.530134
0.324               -0.005922213       -3.575393
0.328               -0.006327013       -3.620549
0.332               -0.006735791       -3.665602
0.336               -0.007147034        -3.71055
0.34                 -0.00755921       -3.755395
0.344               -0.007971337       -3.800136
0.348               -0.008382909       -3.844774
0.352               -0.008790834       -3.889311
0.356               -0.009195145       -3.933746
0.36                -0.009593758       -3.978085
0.364               -0.009987204       -4.022329
0.368                -0.01037391       -4.066481
0.372                -0.01075027       -4.110544
0.376                -0.01111778       -4.154523
0.38                 -0.01147333       -4.198423
0.384                 -0.0118174       -4.242246
0.388                -0.01214789          -4.286
0.392                -0.01246369       -4.329689
0.396                 -0.0127658       -4.373321
0.4                  -0.01305209       -4.416901
0.404                -0.01331989       -4.460435
0.408                -0.01357068       -4.503932
0.412                -0.01380283       -4.547398
0.416                -0.01401676       -4.590841
0.42                 -0.01420928       -4.634268
0.424                -0.01438235       -4.677689
0.428                -0.01453378       -4.721111
0.432                -0.01466347       -4.764543
0.436                 -0.0147713       -4.807993
0.44                 -0.01485764       -4.851473
0.444                -0.01492135       -4.894988
0.448                -0.01496124       -4.938549
0.452                -0.01497924       -4.982165
0.456                -0.01497366       -5.025846
0.46                 -0.01494589         -5.0696
0.464                -0.01489526       -5.113438
0.468                 -0.0148211       -5.157367
0.472                -0.01472532       -5.201398
0.476                -0.01460724        -5.24554
0.48                 -0.01446721       -5.289801
0.484                -0.01430713        -5.33419
0.488                -0.01412579       -5.378718
0.492                -0.01392459       -5.423391
0.496                -0.01370335       -5.468217
0.5                  -0.01346346       -5.513205
0.504                -0.01320525       -5.558364
0.508                -0.01293167       -5.603701
0.512                -0.01263996       -5.649221
0.516                 -0.0123341       -5.694934
0.52                 -0.01201288       -5.740845
0.524                -0.01167976        -5.78696
0.528                -0.01133356       -5.833286
0.532                -0.01097774       -5.879828
0.536                -0.01061111        -5.92659
0.54                 -0.01023611       -5.973578
0.544               -0.009853646       -6.020795
0.548               -0.009465104       -6.068246
0.552               -0.009070887       -6.115933
0.556               -0.008675007       -6.163861
0.56                 -0.00827632       -6.212029
0.564               -0.007877281       -6.260442
0.568               -0.007478826         -6.3091
0.572               -0.007081888       -6.358003
0.576                -0.00668846       -6.407152
0.58                -0.006300497       -6.456549
0.584               -0.005917958        -6.50619
0.588               -0.005543341       -6.556077
0.592               -0.005177122       -6.606206
0.596               -0.004820782       -6.656576
0.6                 -0.004477401       -6.707185
0.604               -0.004144877       -6.758029
0.608               -0.003827311       -6.809106
0.612               -0.003523678       -6.860411
0.616               -0.003237069        -6.91194
0.62                -0.002967509       -6.963688
0.624               -0.002717032       -7.015653
0.628               -0.002485207       -7.067825
0.632               -0.002273585       -7.120201
0.636               -0.002083798       -7.172773
0.64                -0.001915353       -7.225536
0.644               -0.001770389       -7.278484
0.648               -0.001648436       -7.331609
0.652               -0.001551191       -7.384903
0.656                -0.00148024        -7.43836
0.66                -0.001432583       -7.491972
0.664               -0.001411952       -7.545732
0.668               -0.001416915       -7.599629
0.672               -0.001447619       -7.653656
0.676                -0.00150721       -7.707808
0.68                -0.001591756       -7.762073
0.684               -0.001702909       -7.816444
0.688               -0.001843418       -7.870913
0.692               -0.002008734       -7.925471
0.696               -0.002201123       -7.980109
0.7                 -0.002420697       -8.034822
0.704               -0.002665558       -8.089598
0.708               -0.002936358       -8.144432
0.712               -0.003231722       -8.199314
0.716               -0.003552807       -8.254239
0.72                -0.003897753       -8.309195
0.724               -0.004265638       -8.364179
0.728               -0.004657137       -8.419182
0.732               -0.005070272         -8.4742
0.736               -0.005503697       -8.529224
0.74                -0.005957509        -8.58425
0.744               -0.006431337       -8.639271
0.748               -0.006921206       -8.694279
0.752               -0.007428683       -8.749275
0.756               -0.007951886       -8.804251
0.76                -0.008490359       -8.859205
0.764               -0.009040057        -8.91413
0.768               -0.009603126       -8.969027
0.772                  -0.010176       -9.023892
0.776                -0.01075824       -9.078721
0.78                 -0.01134726       -9.133515
0.784                -0.01194412       -9.188274
0.788                -0.01254577       -9.242994
0.792                -0.01315064       -9.297677
0.796                -0.01375661       -9.352324
0.8                  -0.01436423       -9.406935
0.804                -0.01497077       -9.461514
0.808                -0.01557523        -9.51606
0.812                -0.01617484        -9.57058
0.816                -0.01676853       -9.625074
0.82                 -0.01735672       -9.679546
0.824                -0.01793663       -9.734004
0.828                -0.01850659        -9.78845
0.832                -0.01906638       -9.842893
0.836                -0.01961279       -9.897334
0.84                 -0.02014612       -9.951782
0.844                 -0.0206661       -10.00625
0.848                -0.02116889       -10.06073
0.852                -0.02165531       -10.11525
0.856                -0.02212296       -10.16981
0.86                 -0.02257265       -10.22441
0.864                -0.02300037       -10.27907
0.868                -0.02340847        -10.3338
0.872                -0.02379557       -10.38861
0.876                 -0.0241587        -10.4435
0.88                 -0.02449958       -10.49849
0.884                -0.02481634       -10.55359
0.888                -0.02510902       -10.60882
0.892                -0.02537727       -10.66418
0.896                -0.02562018       -10.71968
0.9                  -0.02583781       -10.77534
0.904                -0.02603133       -10.83116
0.908                -0.02619821       -10.88717
0.912                -0.02634008       -10.94337
0.916                -0.02645599       -10.99977
0.92                   -0.026547        -11.0564
0.924                -0.02661373       -11.11325
0.928                -0.02665619       -11.17035
0.932                -0.02667447        -11.2277
0.936                -0.02666912       -11.28531
0.94                  -0.0266407        -11.3432
0.944                -0.02659133       -11.40139
0.948                -0.02652056       -11.45987
0.952                -0.02642896       -11.51867
0.956                -0.02631764       -11.57779
0.96                 -0.02618971       -11.63724
0.964                -0.02604322       -11.69704
0.968                -0.02588188       -11.75719
0.972                -0.02570519       -11.81771
0.976                 -0.0255154       -11.87859
0.98                 -0.02531404       -11.93986
0.984                -0.02510288       -12.00152
0.988                -0.02488255       -12.06357
0.992                -0.02465464       -12.12603
0.996                -0.02442098        -12.1889
1                    -0.02418428       -12.25218
1.004                -0.02394466       -12.31589
1.008                -0.02370498       -12.38003
1.012                -0.02346643       -12.44459
1.016                -0.02323085       -12.50959
1.02                 -0.02300045       -12.57504
1.024                -0.02277613       -12.64092
1.028                -0.02256071       -12.70724
1.032                -0.02235602       -12.77401
1.036                -0.02216341       -12.84122
1.04                 -0.02198488       -12.90888
1.044                -0.02182173       -12.97699
1.048                -0.02167615       -13.04554
1.052                -0.02155031       -13.11453
1.056                -0.02144595       -13.18398
1.06                 -0.02136421       -13.25381
1.064                -0.02130622       -13.32413
1.068                -0.02127469       -13.39484
1.072                -0.02127171       -13.46601
1.076                -0.02129743       -13.53756
1.08                 -0.02135337       -13.60955
1.084                -0.02144148       -13.68198
1.088                -0.02156347       -13.75476
1.092                -0.02171938       -13.82798
1.096                -0.02191147       -13.90156
1.1                  -0.02214076       -13.97554
1.104                -0.02240745       -14.04983
1.108                -0.02271268       -14.12455
1.112                -0.02305823       -14.19962
1.116                 -0.0234449         -14.275
1.12                 -0.02387174       -14.35074
1.124                -0.02434057       -14.42683
1.128                -0.02485175        -14.5032
1.132                -0.02540507        -14.5799
1.136                -0.02600164       -14.65689
1.14                 -0.02664119       -14.73418
1.144                 -0.0273235       -14.81175
1.148                -0.02804889       -14.88958
1.152                -0.02881804       -14.96768
1.156                -0.02962871       -15.04603
1.16                 -0.03048272       -15.12463
1.164                -0.03137885       -15.20345
1.168                 -0.0323146       -15.28251
1.172                -0.03329248       -15.36177
1.176                -0.03431107       -15.44125
1.18                 -0.03536759       -15.52092
1.184                -0.03646267       -15.60079
1.188                -0.03759497       -15.68084
1.192                -0.03876325       -15.76107
1.196                -0.03996813       -15.84147
1.2                  -0.04120559       -15.92203
1.204                -0.04247483       -16.00276
1.208                -0.04377628       -16.08364
1.212                -0.04510642       -16.16468
1.216                -0.04646398       -16.24586
1.22                 -0.04784887       -16.32719
1.224                 -0.0492578       -16.40866
1.228                -0.05069037       -16.49028
1.232                -0.05214483       -16.57203
1.236                -0.05361756       -16.65393
1.24                 -0.05510875       -16.73597
1.244                -0.05661583       -16.81816
1.248                -0.05813571       -16.90049
1.252                -0.05966896       -16.98297
1.256                -0.06121138        -17.0656
1.26                  -0.0627631        -17.1484
1.264                -0.06432079       -17.23135
1.268                -0.06588282       -17.31448
1.272                -0.06744763       -17.39779
1.276                -0.06901373       -17.48128
1.28                 -0.07057887       -17.56496
1.284                -0.07214139       -17.64886
1.288                -0.07369861       -17.73296
1.292                -0.07525134        -17.8173
1.296                 -0.0767949       -17.90187
1.3                  -0.07833005       -17.98669
1.304                -0.07985475       -18.07179
1.308                -0.08136701       -18.15716
1.312                -0.08286617       -18.24282
1.316                -0.08435078        -18.3288
1.32                 -0.08581973        -18.4151
1.324                -0.08727246       -18.50175
1.328                -0.08870683       -18.58877
1.332                -0.09012324       -18.67616
1.336                -0.09151984       -18.76395
1.34                 -0.09289831       -18.85216
1.344                -0.09425552        -18.9408
1.348                -0.09559172       -19.02991
1.352                -0.09690844       -19.11949
1.356                -0.09820406       -19.20957
1.36                 -0.09947875       -19.30017
1.364                 -0.1007329       -19.39131
1.368                 -0.1019674       -19.48302
1.372                 -0.1031822       -19.57531
1.376                 -0.1043788        -19.6682
1.38                  -0.1055559       -19.76173
1.384                 -0.1067155        -19.8559
1.388                 -0.1078593       -19.95074
1.392                 -0.1089882       -20.04628
1.396                 -0.1101028       -20.14252
1.4                   -0.1112061       -20.23951
1.404                 -0.1122981       -20.33725
1.408                 -0.1133817       -20.43577
1.412                  -0.114457       -20.53508
1.416                 -0.1155278       -20.63521
1.42                  -0.1165958       -20.73618
1.424                 -0.1176636         -20.838
1.428                 -0.1187324       -20.94069
1.432                 -0.1198065       -21.04428
1.436                 -0.1208857       -21.14878
1.44                  -0.1219753        -21.2542
1.444                 -0.1230778       -21.36057
1.448                 -0.1241953       -21.46789
1.452                 -0.1253298       -21.57619
1.456                 -0.1264863       -21.68547
1.46                  -0.1276684       -21.79576
1.464                 -0.1288762       -21.90705
1.468                 -0.1301154       -22.01937
1.472                 -0.1313889       -22.13272
1.476                    -0.1327       -22.24712
1.48                  -0.1340526       -22.36258
1.484                 -0.1354488       -22.47909
1.488                 -0.1368928       -22.59668
1.492                 -0.1383885       -22.71534
1.496                 -0.1399394       -22.83509
1.5                   -0.1415472       -22.95592
1.504                 -0.1432184       -23.07784
1.508                 -0.1449533       -23.20086
1.512                 -0.1467576       -23.32497
1.516                 -0.1486341       -23.45018
1.52                  -0.1505854       -23.57649
1.524                 -0.1526167        -23.7039
1.528                 -0.1547294        -23.8324
1.532                 -0.1569273         -23.962
1.536                 -0.1592137       -24.09269
1.54                  -0.1615909       -24.22448
1.544                 -0.1640641       -24.35735
1.548                 -0.1666335        -24.4913
1.552                 -0.1693032       -24.62633
1.556                 -0.1720769       -24.76242
1.56                  -0.1749553       -24.89959
1.564                  -0.177942       -25.03781
1.568                 -0.1810393       -25.17708
1.572                 -0.1842496        -25.3174
1.576                 -0.1875741       -25.45876
1.58                   -0.191016       -25.60114
1.584                 -0.1945767       -25.74454
1.588                 -0.1982569       -25.88896
1.592                 -0.2020613       -26.03438
1.596                  -0.205988       -26.18079
1.6                   -0.2100408        -26.3282
1.604                 -0.2142198       -26.47658
1.608                  -0.218525       -26.62593
1.612                 -0.2229594       -26.77625
1.616                 -0.2275232       -26.92752
1.62                  -0.2322163       -27.07974
1.624                 -0.2370403        -27.2329
1.628                 -0.2419938       -27.38699
1.632                 -0.2470806       -27.54202
1.636                 -0.2522965       -27.69797
1.64                  -0.2576435       -27.85484
1.644                 -0.2631224       -28.01262
1.648                 -0.2687317       -28.17132
1.652                 -0.2744704       -28.33092
1.656                 -0.2803396       -28.49144
1.66                  -0.2863384       -28.65286
1.664                 -0.2924659       -28.81519
1.668                  -0.298721       -28.97844
1.672                  -0.305103        -29.1426
1.676                 -0.3116109       -29.30767
1.68                  -0.3182439       -29.47367
1.684                 -0.3250018        -29.6406
1.688                 -0.3318807       -29.80846
1.692                 -0.3388827       -29.97728
1.696                 -0.3460054       -30.14705
1.7                   -0.3532471        -30.3178
1.704                 -0.3606077       -30.48953
1.708                 -0.3680843       -30.66226
1.712                 -0.3756781       -30.83601
1.716                 -0.3833859       -31.01079
1.72                  -0.3912079       -31.18664
1.724                 -0.3991425       -31.36356
1.728                 -0.4071884       -31.54158
1.732                 -0.4153463       -31.72073
1.736                  -0.423613       -31.90104
1.74                  -0.4319898       -32.08253
1.744                 -0.4404761       -32.26524
1.748                 -0.4490709       -32.44919
1.752                 -0.4577719       -32.63442
1.756                 -0.4665841       -32.82098
1.76                  -0.4755013       -33.00888
1.764                 -0.4845286       -33.19817
1.768                 -0.4936655       -33.38891
1.772                 -0.5029113       -33.58111
1.776                 -0.5122673       -33.77483
1.78                  -0.5217363       -33.97012
1.784                 -0.5313178       -34.16702
1.788                 -0.5410153       -34.36558
1.792                 -0.5508282       -34.56584
1.796                 -0.5607614       -34.76787
1.8                    -0.570817       -34.97171
1.804                 -0.5809971       -35.17741
1.808                 -0.5913053       -35.38503
1.812                 -0.6017467       -35.59463
1.816                 -0.6123221       -35.80626
1.82                  -0.6230385       -36.01997
1.824                 -0.6339009       -36.23584
1.828                 -0.6449133       -36.45392
1.832                 -0.6560802       -36.67425
1.836                 -0.6674098       -36.89691
1.84                  -0.6789067       -37.12196
1.844                 -0.6905787       -37.34945
1.848                 -0.7024324       -37.57947
1.852                 -0.7144769       -37.81205
1.856                 -0.7267184       -38.04726
1.86                  -0.7391667       -38.28517
1.864                 -0.7518292       -38.52584
1.868                 -0.7647173       -38.76932
1.872                 -0.7778393        -39.0157
1.876                  -0.791206       -39.26501
1.88                  -0.8048273       -39.51733
1.884                 -0.8187165       -39.77271
1.888                 -0.8328835       -40.03122
1.892                 -0.8473411        -40.2929
1.896                 -0.8621021       -40.55784
1.9                   -0.8771781       -40.82607
1.904                 -0.8925836       -41.09765
1.908                 -0.9083335       -41.37266
1.912                 -0.9244406       -41.65112
1.916                 -0.9409193       -41.93311
1.92                  -0.9577867       -42.21867
1.924                  -0.975058       -42.50787
1.928                 -0.9927472       -42.80072
1.932                  -1.010873        -43.0973
1.936                  -1.029452       -43.39765
1.94                   -1.048502       -43.70182
1.944                  -1.068038       -44.00984
1.948                  -1.088082       -44.32176
1.952                  -1.108651       -44.63763
1.956                  -1.129762       -44.95747
1.96                   -1.151438       -45.28134
1.964                  -1.173696       -45.60925
1.968                  -1.196559       -45.94125
1.972                  -1.220045       -46.27737
1.976                  -1.244174       -46.61765
1.98                    -1.26897       -46.96209
1.984                  -1.294454       -47.31074
1.988                  -1.320647       -47.66361
1.992                  -1.347572       -48.02073
1.996                  -1.375253       -48.38213
2                      -1.403712       -48.74782
2.004                  -1.432972       -49.11781
2.008                  -1.463057       -49.49213
2.012                  -1.493993       -49.87079
2.016                  -1.525803        -50.2538
2.02                   -1.558513       -50.64116
2.024                  -1.592146       -51.03289
2.028                  -1.626733       -51.42901
2.032                  -1.662295       -51.82949
2.036                  -1.698861       -52.23437
2.04                   -1.736457       -52.64362
2.044                   -1.77511       -53.05726
2.048                   -1.81485       -53.47528
2.052                  -1.855704       -53.89769
2.056                  -1.897699       -54.32448
2.06                   -1.940868       -54.75564
2.064                  -1.985237       -55.19116
2.068                  -2.030837       -55.63104
2.072                    -2.0777       -56.07526
2.076                  -2.125856       -56.52384
2.08                   -2.175337       -56.97673
2.084                  -2.226175       -57.43393
2.088                  -2.278404       -57.89545
2.092                  -2.332055       -58.36124
2.096                  -2.387164        -58.8313
2.1                    -2.443766       -59.30563
2.104                  -2.501896       -59.78419
2.108                  -2.561589       -60.26695
2.112                  -2.622884       -60.75394
2.116                  -2.685819       -61.24511
2.12                   -2.750432       -61.74044
2.124                  -2.816761       -62.23992
2.128                  -2.884849       -62.74352
2.132                  -2.954738       -63.25125
2.136                  -3.026468       -63.76305
2.14                   -3.100086       -64.27893
2.144                  -3.175634       -64.79886
2.148                  -3.253161       -65.32282
2.152                  -3.332714       -65.85079
2.156                  -3.414342       -66.38277
2.16                   -3.498094       -66.91872
2.164                  -3.584026       -67.45863
2.168                  -3.672189       -68.00251
2.172                  -3.762638        -68.5503
2.176                  -3.855433       -69.10202
2.18                   -3.950635       -69.65765
2.184                  -4.048302        -70.2172
2.188                  -4.148502       -70.78062
2.192                  -4.251297       -71.34792
2.196                  -4.356761       -71.91911
2.2                    -4.464965        -72.4942
2.204                  -4.575982       -73.07317
2.208                  -4.689893       -73.65603
2.212                  -4.806779       -74.24277
2.216                  -4.926725       -74.83345
2.22                   -5.049819       -75.42803
2.224                  -5.176158       -76.02656
2.228                  -5.305837       -76.62908
2.232                  -5.438961       -77.23558
2.236                  -5.575637       -77.84615
2.24                    -5.71598        -78.4608
2.244                  -5.860108       -79.07958
2.248                  -6.008149       -79.70258
2.252                  -6.160234       -80.32984
2.256                  -6.316508       -80.96144
2.26                   -6.477118       -81.59749
2.264                  -6.642224       -82.23811
2.268                  -6.811992       -82.88337
2.272                  -6.986603       -83.53343
2.276                  -7.166246       -84.18843
2.28                   -7.351123       -84.84855
2.284                  -7.541456       -85.51399
2.288                  -7.737473       -86.18496
2.292                  -7.939424        -86.8617
2.296                  -8.147577       -87.54448
2.3                     -8.36222       -88.23362
2.304                  -8.583663       -88.92945
2.308                  -8.812243        -89.6324
2.312                  -9.048319       -90.34289
2.316                  -9.292291       -91.06146
2.32                   -9.544581       -91.78865
2.324                  -9.805661       -92.52515
2.328                  -10.07604       -93.27171
2.332                  -10.35628       -94.02916
2.336                    -10.647       -94.79853
2.34                   -10.94888       -95.58091
2.344                  -11.26266       -96.37767
2.348                  -11.58919        -97.1903
2.352                   -11.9294        -98.0206
2.356                  -12.28432       -98.87069
2.36                   -12.65514       -99.74298
2.364                  -13.04316       -100.6404
2.368                  -13.44991       -101.5665
2.372                  -13.87707       -102.5255
2.376                  -14.32663       -103.5225
2.38                   -14.80084       -104.5636
2.384                  -15.30233       -105.6567
2.388                  -15.83418       -106.8113
2.392                  -16.40002       -108.0397
2.396                  -17.00414       -109.3574
2.4                    -17.65171       -110.7849
2.404                  -18.34894        -112.349