! TOUCHSTONE file generated by CST MICROWAVE STUDIO
! Date and time: Fri May  6 15:38:56 2022
! Project name: ant1_ceramic_sweep_fr4.cst
! Parameters = {e=0.035; h=1.6; i=0.8; l1=0.5; l2=18.864; ls=80; wl=1.7; ws=30}
! Header version: 2018
! Port assignment regex: !\s*Touchstone port\s*([0-9]+)\s*=\s*(CST MWS port|CST DS port)\s*([0-9]+|Zmin|Zmax)\s*\(\"(.*)\"\)(\s*mode\s*([0-9]+))?.*
! Touchstone port assignment:
! Touchstone port 1 = CST MWS port 1 ("")
# GHz S DB R 50
0                  -0.0002899277              -0
0.004               -0.000289825     -0.04053447
0.008              -0.0002915878     -0.08106941
0.012              -0.0002921093      -0.1216053
0.016                -0.00029346      -0.1621425
0.02               -0.0002956392      -0.2026816
0.024              -0.0002976107      -0.2432229
0.028              -0.0002998909      -0.2837671
0.032              -0.0003024789      -0.3243143
0.036              -0.0003058908      -0.3648653
0.04               -0.0003101251      -0.4054202
0.044              -0.0003141444      -0.4459796
0.048               -0.000317947      -0.4865438
0.052              -0.0003236015      -0.5271135
0.056              -0.0003290351      -0.5676887
0.06               -0.0003357983      -0.6082699
0.064              -0.0003433711      -0.6488575
0.068              -0.0003496797      -0.6894519
0.072              -0.0003588631      -0.7300535
0.076              -0.0003667769      -0.7706624
0.08               -0.0003760067      -0.8112789
0.084              -0.0003865493      -0.8519037
0.088               -0.000397366      -0.8925367
0.092               -0.000407936      -0.9331781
0.096              -0.0004208446      -0.9738286
0.1                -0.0004334996       -1.014488
0.104              -0.0004469327       -1.055157
0.108              -0.0004626946       -1.095835
0.112              -0.0004766393       -1.136523
0.116              -0.0004934232       -1.177221
0.12               -0.0005109707       -1.217929
0.124               -0.000528244       -1.258647
0.128              -0.0005473095       -1.299375
0.132              -0.0005681647       -1.340114
0.136              -0.0005882165       -1.380863
0.14                -0.000610049       -1.421624
0.144              -0.0006331424       -1.462395
0.148              -0.0006569744       -1.503176
0.152              -0.0006810236       -1.543969
0.156              -0.0007063229       -1.584773
0.16               -0.0007333854       -1.625588
0.164              -0.0007606545       -1.666414
0.168              -0.0007891626       -1.707251
0.172              -0.0008183868       -1.748099
0.176              -0.0008483259       -1.788958
0.18               -0.0008789738       -1.829829
0.184              -0.0009118804       -1.870711
0.188              -0.0009444551       -1.911605
0.192               -0.000977727        -1.95251
0.196               -0.001012731       -1.993426
0.2                 -0.001047908       -2.034354
0.204               -0.001083771       -2.075294
0.208               -0.001119799       -2.116245
0.212               -0.001157027       -2.157208
0.216                -0.00119389       -2.198183
0.22                -0.001232978       -2.239171
0.224               -0.001271181       -2.280169
0.228               -0.001310042       -2.321181
0.232               -0.001349562       -2.362205
0.236               -0.001389213       -2.403241
0.24                -0.001428477       -2.444291
0.244               -0.001467863       -2.485353
0.248               -0.001507883       -2.526429
0.252               -0.001548012       -2.567518
0.256               -0.001587215       -2.608621
0.26                -0.001626514       -2.649738
0.264               -0.001665384        -2.69087
0.268               -0.001704339       -2.732017
0.272               -0.001742849       -2.773179
0.276               -0.001779874       -2.814357
0.28                -0.001817475       -2.855552
0.284               -0.001852536       -2.896763
0.288               -0.001888672       -2.937992
0.292               -0.001922765       -2.979238
0.296               -0.001956356       -3.020504
0.3                   -0.0019884       -3.061788
0.304               -0.002018889       -3.103092
0.308               -0.002048323       -3.144417
0.312               -0.002077204       -3.185764
0.316                -0.00210397       -3.227133
0.32                -0.002128604       -3.268525
0.324               -0.002152643       -3.309941
0.328               -0.002174005       -3.351382
0.332               -0.002194216       -3.392849
0.336               -0.002211717       -3.434342
0.34                -0.002228034       -3.475864
0.344               -0.002241597       -3.517414
0.348               -0.002253423       -3.558995
0.352               -0.002262452       -3.600607
0.356               -0.002269702       -3.642251
0.36                -0.002275156       -3.683928
0.364               -0.002277741       -3.725641
0.368               -0.002277444       -3.767388
0.372               -0.002275271       -3.809174
0.376               -0.002270162       -3.850998
0.38                -0.002263116       -3.892863
0.384               -0.002253603       -3.934768
0.388               -0.002240558       -3.976716
0.392               -0.002225494       -4.018708
0.396               -0.002207875       -4.060745
0.4                 -0.002187663       -4.102829
0.404               -0.002165862       -4.144962
0.408               -0.002139857       -4.187143
0.412               -0.002111676       -4.229377
0.416               -0.002081816       -4.271663
0.42                -0.002048687       -4.314002
0.424               -0.002013801       -4.356397
0.428               -0.001976601        -4.39885
0.432               -0.001936027        -4.44136
0.436               -0.001894118        -4.48393
0.44                -0.001850809       -4.526562
0.444               -0.001805057       -4.569256
0.448                -0.00175577       -4.612015
0.452               -0.001706552       -4.654838
0.456               -0.001654757       -4.697728
0.46                -0.001600878       -4.740686
0.464               -0.001546414       -4.783714
0.468               -0.001490818       -4.826813
0.472               -0.001433007       -4.869984
0.476               -0.001373994       -4.913227
0.48                -0.001314757       -4.956545
0.484               -0.001255261       -4.999939
0.488               -0.001193913       -5.043409
0.492               -0.001132744       -5.086956
0.496               -0.001071711       -5.130583
0.5                 -0.001008723       -5.174288
0.504              -0.0009473454       -5.218074
0.508              -0.0008859842       -5.261942
0.512              -0.0008246052       -5.305893
0.516              -0.0007647322       -5.349926
0.52               -0.0007052808       -5.394043
0.524              -0.0006462216       -5.438243
0.528              -0.0005895803        -5.48253
0.532              -0.0005337807       -5.526901
0.536              -0.0004803261       -5.571359
0.54               -0.0004276274       -5.615903
0.544              -0.0003772251       -5.660533
0.548              -0.0003290692       -5.705251
0.552                -0.00028262       -5.750055
0.556              -0.0002414458       -5.794948
0.56               -0.0002003706       -5.839927
0.564              -0.0001634904       -5.884994
0.568              -0.0001297371       -5.930149
0.572              -9.960741e-05       -5.975391
0.576               -7.30766e-05        -6.02072
0.58               -5.011329e-05       -6.066136
0.584              -3.121452e-05       -6.111639
0.588               -1.73853e-05        -6.15723
0.592              -7.599596e-06       -6.202904
0.596               -1.26987e-06       -6.248666
0.6                 5.612233e-08       -6.294513
0.604              -4.662379e-06       -6.340444
0.608              -1.383681e-05       -6.386459
0.612              -2.795824e-05       -6.432558
0.616               -4.70252e-05       -6.478739
0.62               -7.205836e-05       -6.525002
0.624              -0.0001014847       -6.571346
0.628              -0.0001378907       -6.617771
0.632              -0.0001791824       -6.664275
0.636               -0.000226374       -6.710859
0.64               -0.0002789452        -6.75752
0.644               -0.000337949       -6.804257
0.648              -0.0004033497       -6.851071
0.652              -0.0004730789       -6.897959
0.656              -0.0005502084       -6.944923
0.66               -0.0006327098       -6.991959
0.664              -0.0007215766       -7.039067
0.668              -0.0008162761       -7.086247
0.672              -0.0009173517       -7.133496
0.676               -0.001023766       -7.180814
0.68                -0.001136001       -7.228201
0.684                -0.00125407       -7.275655
0.688               -0.001377982       -7.323174
0.692                -0.00150768       -7.370761
0.696               -0.001643222       -7.418411
0.7                 -0.001783525       -7.466125
0.704               -0.001928615       -7.513901
0.708               -0.002080009        -7.56174
0.712               -0.002235649       -7.609639
0.716               -0.002396025         -7.6576
0.72                -0.002561661       -7.705621
0.724               -0.002731475       -7.753703
0.728               -0.002905567       -7.801841
0.732               -0.003083775        -7.85004
0.736               -0.003265687       -7.898295
0.74                -0.003452237       -7.946611
0.744               -0.003640873       -7.994982
0.748                -0.00383414       -8.043413
0.752               -0.004029415       -8.091901
0.756               -0.004227243       -8.140446
0.76                -0.004427585       -8.189048
0.764               -0.004630401       -8.237707
0.768               -0.004834589       -8.286427
0.772               -0.005040675       -8.335205
0.776               -0.005247594       -8.384041
0.78                -0.005456349       -8.432937
0.784               -0.005665284       -8.481895
0.788               -0.005874964       -8.530912
0.792               -0.006084759       -8.579993
0.796               -0.006294093       -8.629138
0.8                 -0.006502487       -8.678345
0.804               -0.006710786        -8.72762
0.808               -0.006917978       -8.776963
0.812               -0.007123524       -8.826371
0.816               -0.007328285       -8.875852
0.82                -0.007529651       -8.925405
0.824               -0.007729602       -8.975032
0.828               -0.007927085       -9.024734
0.832               -0.008121949       -9.074515
0.836               -0.008313119       -9.124374
0.84                -0.008502036       -9.174316
0.844               -0.008686028       -9.224342
0.848               -0.008867556       -9.274457
0.852               -0.009044476       -9.324661
0.856               -0.009217201       -9.374957
0.86                -0.009385651       -9.425347
0.864               -0.009549641       -9.475836
0.868               -0.009708598       -9.526426
0.872               -0.009862884        -9.57712
0.876                -0.01001188       -9.627921
0.88                 -0.01015495       -9.678831
0.884                -0.01029349       -9.729856
0.888                -0.01042686       -9.780998
0.892                -0.01055441        -9.83226
0.896                  -0.010676       -9.883644
0.9                  -0.01079251       -9.935157
0.904                -0.01090276         -9.9868
0.908                -0.01100765       -10.03858
0.912                -0.01110599       -10.09049
0.916                -0.01119921       -10.14255
0.92                 -0.01128706       -10.19475
0.924                -0.01136944        -10.2471
0.928                -0.01144619       -10.29961
0.932                -0.01151818       -10.35227
0.936                -0.01158321       -10.40509
0.94                 -0.01164518       -10.45807
0.944                -0.01170085       -10.51123
0.948                -0.01175211       -10.56455
0.952                -0.01179832       -10.61805
0.956                -0.01184132       -10.67173
0.96                 -0.01187943       -10.72559
0.964                -0.01191452       -10.77963
0.968                -0.01194534       -10.83387
0.972                -0.01197335        -10.8883
0.976                -0.01199839       -10.94292
0.98                 -0.01202122       -10.99774
0.984                -0.01204073       -11.05277
0.988                -0.01205874         -11.108
0.992                -0.01207622       -11.16344
0.996                -0.01209186       -11.21909
1                    -0.01210708       -11.27496
1.004                -0.01212278       -11.33104
1.008                -0.01213821       -11.38735
1.012                -0.01215486       -11.44388
1.016                -0.01217197       -11.50063
1.02                 -0.01219149       -11.55761
1.024                -0.01221226       -11.61482
1.028                -0.01223768       -11.67227
1.032                -0.01226401       -11.72994
1.036                 -0.0122958       -11.78785
1.04                 -0.01233031         -11.846
1.044                -0.01237046       -11.90439
1.048                 -0.0124161       -11.96302
1.052                -0.01246715       -12.02189
1.056                -0.01252562       -12.08098
1.06                 -0.01259037       -12.14035
1.064                -0.01266323       -12.19996
1.068                 -0.0127439        -12.2598
1.072                -0.01283354       -12.31987
1.076                -0.01293219       -12.38023
1.08                 -0.01304045        -12.4408
1.084                -0.01315894       -12.50161
1.088                -0.01328738       -12.56273
1.092                 -0.0134276       -12.62404
1.096                -0.01358039       -12.68559
1.1                  -0.01374468       -12.74742
1.104                -0.01392173       -12.80946
1.108                -0.01411257       -12.87175
1.112                -0.01431614       -12.93429
1.116                -0.01453437       -12.99707
1.12                 -0.01476713        -13.0601
1.124                -0.01501486       -13.12335
1.128                -0.01527825       -13.18687
1.132                -0.01555576        -13.2506
1.136                -0.01585088       -13.31458
1.14                 -0.01616108       -13.37879
1.144                -0.01648845       -13.44322
1.148                 -0.0168329       -13.50789
1.152                -0.01719286       -13.57279
1.156                -0.01757185       -13.63791
1.16                 -0.01796842       -13.70326
1.164                -0.01838151       -13.76883
1.168                -0.01881368       -13.83463
1.172                -0.01926385       -13.90064
1.176                -0.01973099       -13.96686
1.18                  -0.0202177       -14.03331
1.184                -0.02072186       -14.09996
1.188                -0.02124402       -14.16682
1.192                -0.02178468        -14.2339
1.196                -0.02234279       -14.30118
1.2                  -0.02291991       -14.36866
1.204                -0.02351493       -14.43635
1.208                -0.02412838       -14.50424
1.212                -0.02475819       -14.57233
1.216                -0.02540706       -14.64061
1.22                 -0.02607164       -14.70909
1.224                -0.02675405       -14.77777
1.228                -0.02745367       -14.84664
1.232                -0.02816969        -14.9157
1.236                -0.02890085       -14.98495
1.24                   -0.029649       -15.05439
1.244                -0.03041281       -15.12402
1.248                -0.03119068       -15.19384
1.252                -0.03198432       -15.26385
1.256                -0.03279125       -15.33404
1.26                 -0.03361252       -15.40442
1.264                -0.03444739       -15.47499
1.268                -0.03529463       -15.54575
1.272                -0.03615434        -15.6167
1.276                -0.03702672       -15.68783
1.28                 -0.03790809       -15.75916
1.284                -0.03880257       -15.83067
1.288                -0.03970664       -15.90238
1.292                -0.04061982       -15.97428
1.296                -0.04154237       -16.04638
1.3                  -0.04247248       -16.11867
1.304                -0.04341161       -16.19117
1.308                -0.04435778       -16.26387
1.312                -0.04531103       -16.33677
1.316                -0.04626888       -16.40989
1.32                  -0.0472335       -16.48322
1.324                -0.04820135       -16.55676
1.328                -0.04917535       -16.63052
1.332                -0.05015338       -16.70451
1.336                -0.05113346       -16.77873
1.34                 -0.05211593       -16.85318
1.344                -0.05310066       -16.92787
1.348                -0.05408725        -17.0028
1.352                -0.05507409       -17.07799
1.356                -0.05606256       -17.15343
1.36                 -0.05705079       -17.22913
1.364                -0.05803739        -17.3051
1.368                -0.05902423       -17.38135
1.372                -0.06000951       -17.45788
1.376                -0.06099365       -17.53469
1.38                 -0.06197567       -17.61181
1.384                -0.06295499       -17.68923
1.388                 -0.0639322       -17.76696
1.392                -0.06490662       -17.84501
1.396                -0.06587831       -17.92339
1.4                  -0.06684568        -18.0021
1.404                 -0.0678106       -18.08116
1.408                -0.06877187       -18.16058
1.412                -0.06972969       -18.24036
1.416                -0.07068424       -18.32051
1.42                 -0.07163596       -18.40104
1.424                -0.07258295       -18.48197
1.428                -0.07352802       -18.56329
1.432                -0.07446968       -18.64503
1.436                 -0.0754083       -18.72719
1.44                 -0.07634494       -18.80977
1.444                -0.07727757        -18.8928
1.448                -0.07821043       -18.97627
1.452                -0.07914149       -19.06021
1.456                -0.08007116       -19.14462
1.46                 -0.08100085        -19.2295
1.464                -0.08193072       -19.31488
1.468                   -0.08286       -19.40076
1.472                -0.08379172       -19.48715
1.476                  -0.084726       -19.57406
1.48                 -0.08566271       -19.66149
1.484                -0.08660328       -19.74947
1.488                -0.08754879         -19.838
1.492                -0.08849907       -19.92709
1.496                -0.08945749       -20.01674
1.5                  -0.09042183       -20.10698
1.504                -0.09139591        -20.1978
1.508                -0.09237856       -20.28922
1.512                -0.09337359       -20.38125
1.516                 -0.0943794       -20.47389
1.52                 -0.09539881       -20.56715
1.524                -0.09643313       -20.66105
1.528                -0.09748261       -20.75558
1.532                -0.09855021       -20.85077
1.536                -0.09963603       -20.94661
1.54                  -0.1007422       -21.04311
1.544                 -0.1018702       -21.14028
1.548                   -0.10302       -21.23813
1.552                 -0.1041953       -21.33666
1.556                 -0.1053963       -21.43589
1.56                  -0.1066249       -21.53581
1.564                  -0.107882       -21.63643
1.568                 -0.1091708       -21.73776
1.572                 -0.1104909       -21.83981
1.576                  -0.111846       -21.94257
1.58                  -0.1132359       -22.04606
1.584                 -0.1146636       -22.15027
1.588                 -0.1161296       -22.25522
1.592                 -0.1176358        -22.3609
1.596                 -0.1191853       -22.46731
1.6                   -0.1207777       -22.57447
1.604                 -0.1224153       -22.68238
1.608                  -0.124101       -22.79103
1.612                 -0.1258349       -22.90043
1.616                 -0.1276178       -23.01059
1.62                  -0.1294545        -23.1215
1.624                 -0.1313441       -23.23316
1.628                  -0.133289       -23.34558
1.632                 -0.1352898       -23.45876
1.636                 -0.1373478       -23.57269
1.64                  -0.1394668       -23.68738
1.644                 -0.1416469       -23.80283
1.648                 -0.1438888       -23.91904
1.652                 -0.1461948         -24.036
1.656                 -0.1485654       -24.15373
1.66                  -0.1510039       -24.27221
1.664                  -0.153509       -24.39145
1.668                 -0.1560839       -24.51144
1.672                 -0.1587288       -24.63219
1.676                 -0.1614461        -24.7537
1.68                  -0.1642343       -24.87595
1.684                 -0.1670972       -24.99896
1.688                 -0.1700337       -25.12272
1.692                 -0.1730464       -25.24722
1.696                 -0.1761359       -25.37248
1.7                   -0.1793023       -25.49848
1.704                  -0.182547       -25.62522
1.708                 -0.1858712       -25.75272
1.712                 -0.1892749       -25.88095
1.716                 -0.1927591       -26.00993
1.72                  -0.1963237       -26.13964
1.724                 -0.1999701        -26.2701
1.728                 -0.2036978        -26.4013
1.732                 -0.2075097       -26.53324
1.736                  -0.211402       -26.66592
1.74                  -0.2153796       -26.79933
1.744                 -0.2194388       -26.93349
1.748                  -0.223583       -27.06839
1.752                 -0.2278111       -27.20403
1.756                 -0.2321232       -27.34041
1.76                    -0.23652       -27.47754
1.764                 -0.2410004       -27.61542
1.768                 -0.2455655       -27.75405
1.772                  -0.250215       -27.89343
1.776                 -0.2549476       -28.03356
1.78                  -0.2597655       -28.17446
1.784                 -0.2646678       -28.31612
1.788                 -0.2696542       -28.45856
1.792                 -0.2747231       -28.60177
1.796                 -0.2798764       -28.74576
1.8                   -0.2851131       -28.89054
1.804                 -0.2904332       -29.03612
1.808                 -0.2958352        -29.1825
1.812                 -0.3013212       -29.32969
1.816                 -0.3068894       -29.47771
1.82                  -0.3125403       -29.62657
1.824                 -0.3182717       -29.77626
1.828                 -0.3240868       -29.92681
1.832                 -0.3299832       -30.07823
1.836                 -0.3359603       -30.23053
1.84                  -0.3420186       -30.38372
1.844                  -0.348159       -30.53783
1.848                 -0.3543803       -30.69286
1.852                 -0.3606833       -30.84883
1.856                 -0.3670658       -31.00576
1.86                  -0.3735301       -31.16366
1.864                 -0.3800766       -31.32256
1.868                 -0.3867035       -31.48247
1.872                 -0.3934124       -31.64342
1.876                 -0.4002029       -31.80541
1.88                  -0.4070769       -31.96849
1.884                 -0.4140331       -32.13267
1.888                 -0.4210738       -32.29797
1.892                 -0.4281973       -32.46442
1.896                 -0.4354068       -32.63204
1.9                   -0.4427016       -32.80086
1.904                 -0.4500832        -32.9709
1.908                 -0.4575543        -33.1422
1.912                 -0.4651127       -33.31477
1.916                 -0.4727631       -33.48866
1.92                  -0.4805057       -33.66388
1.924                 -0.4883423       -33.84048
1.928                 -0.4962744       -34.01847
1.932                 -0.5043037       -34.19789
1.936                 -0.5124344       -34.37878
1.94                  -0.5206663       -34.56116
1.944                 -0.5290029       -34.74507
1.948                 -0.5374484       -34.93055
1.952                 -0.5460023       -35.11762
1.956                 -0.5546705       -35.30632
1.96                  -0.5634566        -35.4967
1.964                 -0.5723617       -35.68878
1.968                 -0.5813902       -35.88259
1.972                 -0.5905464       -36.07819
1.976                 -0.5998346       -36.27559
1.98                   -0.609258       -36.47484
1.984                 -0.6188228       -36.67599
1.988                 -0.6285318       -36.87905
1.992                 -0.6383901       -37.08408
1.996                 -0.6484041       -37.29111
2                     -0.6585793       -37.50018
2.004                  -0.668919       -37.71132
2.008                 -0.6794324       -37.92457
2.012                 -0.6901228       -38.13999
2.016                 -0.7009973       -38.35758
2.02                  -0.7120623       -38.57741
2.024                 -0.7233263       -38.79951
2.028                 -0.7347942       -39.02391
2.032                 -0.7464736       -39.25064
2.036                 -0.7583712       -39.47976
2.04                  -0.7704987        -39.7113
2.044                 -0.7828594       -39.94528
2.048                 -0.7954643       -40.18175
2.052                 -0.8083195       -40.42074
2.056                 -0.8214371        -40.6623
2.06                  -0.8348235       -40.90645
2.064                 -0.8484893       -41.15322
2.068                 -0.8624415       -41.40266
2.072                 -0.8766931        -41.6548
2.076                 -0.8912522       -41.90966
2.08                  -0.9061289       -42.16728
2.084                 -0.9213333       -42.42769
2.088                 -0.9368777       -42.69093
2.092                 -0.9527718       -42.95703
2.096                 -0.9690271         -43.226
2.1                   -0.9856539       -43.49788
2.104                  -1.002665       -43.77269
2.108                  -1.020072       -44.05048
2.112                  -1.037887       -44.33127
2.116                  -1.056122       -44.61506
2.12                    -1.07479       -44.90189
2.124                  -1.093902       -45.19179
2.128                  -1.113474       -45.48479
2.132                  -1.133515       -45.78089
2.136                  -1.154044       -46.08012
2.14                    -1.17507        -46.3825
2.144                  -1.196608       -46.68805
2.148                  -1.218673       -46.99679
2.152                  -1.241278       -47.30874
2.156                  -1.264439       -47.62391
2.16                   -1.288171       -47.94232
2.164                  -1.312487       -48.26398
2.168                  -1.337404       -48.58891
2.172                  -1.362935       -48.91711
2.176                    -1.3891       -49.24861
2.18                   -1.415909        -49.5834
2.184                  -1.443383        -49.9215
2.188                  -1.471537       -50.26294
2.192                  -1.500388       -50.60769
2.196                   -1.52995       -50.95579
2.2                    -1.560244       -51.30723
2.204                  -1.591284       -51.66202
2.208                  -1.623089       -52.02015
2.212                  -1.655677       -52.38163
2.216                  -1.689066       -52.74649
2.22                   -1.723274        -53.1147
2.224                   -1.75832       -53.48628
2.228                  -1.794222       -53.86121
2.232                     -1.831       -54.23952
2.236                  -1.868672       -54.62119
2.24                    -1.90726       -55.00622
2.244                  -1.946782        -55.3946
2.248                  -1.987258       -55.78634
2.252                  -2.028712       -56.18145
2.256                  -2.071161        -56.5799
2.26                   -2.114629       -56.98169
2.264                  -2.159135       -57.38682
2.268                  -2.204705       -57.79529
2.272                  -2.251359        -58.2071
2.276                  -2.299119       -58.62221
2.28                    -2.34801       -59.04064
2.284                  -2.398053       -59.46238
2.288                  -2.449277       -59.88743
2.292                  -2.501701       -60.31577
2.296                  -2.555354       -60.74738
2.3                    -2.610261       -61.18229
2.304                  -2.666447       -61.62045
2.308                   -2.72394       -62.06188
2.312                  -2.782765       -62.50657
2.316                  -2.842953       -62.95449
2.32                   -2.904528       -63.40564
2.324                  -2.967526       -63.86002
2.328                  -3.031971       -64.31762
2.332                  -3.097895       -64.77842
2.336                  -3.165331       -65.24244
2.34                   -3.234311       -65.70964
2.344                  -3.304865       -66.18003
2.348                  -3.377031        -66.6536
2.352                  -3.450841       -67.13033
2.356                  -3.526333       -67.61025
2.36                   -3.603543       -68.09333
2.364                  -3.682508       -68.57956
2.368                  -3.763268       -69.06896
2.372                  -3.845866        -69.5615
2.376                  -3.930339       -70.05719
2.38                   -4.016732       -70.55604
2.384                  -4.105091       -71.05805
2.388                   -4.19546       -71.56319
2.392                  -4.287888       -72.07151
2.396                  -4.382423         -72.583
2.4                    -4.479116       -73.09765
2.404                  -4.578023       -73.61549