! TOUCHSTONE file generated by CST MICROWAVE STUDIO
! Date and time: Fri May  6 15:38:56 2022
! Project name: ant1_ceramic_sweep_fr4.cst
! Parameters = {e=0.035; h=1.6; i=0.8; l1=0.5; l2=20.7504; ls=80; wl=1.7; ws=30}
! Header version: 2018
! Port assignment regex: !\s*Touchstone port\s*([0-9]+)\s*=\s*(CST MWS port|CST DS port)\s*([0-9]+|Zmin|Zmax)\s*\(\"(.*)\"\)(\s*mode\s*([0-9]+))?.*
! Touchstone port assignment:
! Touchstone port 1 = CST MWS port 1 ("")
# GHz S DB R 50
0                   -0.001533102              -0
0.004               -0.001532265     -0.04251134
0.008               -0.001528199     -0.08502442
0.012               -0.001520903       -0.127541
0.016               -0.001511929      -0.1700628
0.02                -0.001499202      -0.2125915
0.024               -0.001484274      -0.2551288
0.028                -0.00146662      -0.2976765
0.032               -0.001446755      -0.3402361
0.036               -0.001424155      -0.3828092
0.04                -0.001399331      -0.4253975
0.044               -0.001372795      -0.4680025
0.048               -0.001344538      -0.5106256
0.052                -0.00131248      -0.5532681
0.056               -0.001280239      -0.5959317
0.06                 -0.00124625      -0.6386174
0.064               -0.001209987      -0.6813267
0.068               -0.001174028      -0.7240606
0.072               -0.001135256      -0.7668204
0.076               -0.001096248       -0.809607
0.08                -0.001055958      -0.8524214
0.084               -0.001014893      -0.8952644
0.088              -0.0009745923      -0.9381369
0.092              -0.0009334918      -0.9810399
0.096              -0.0008920979       -1.023974
0.1                -0.0008503971       -1.066939
0.104              -0.0008104489       -1.109936
0.108              -0.0007696532       -1.152966
0.112               -0.000730068       -1.196028
0.116              -0.0006921996       -1.239124
0.12               -0.0006550006       -1.282252
0.124              -0.0006200124       -1.325414
0.128              -0.0005856712       -1.368609
0.132              -0.0005530006       -1.411837
0.136              -0.0005225097       -1.455098
0.14               -0.0004947038       -1.498391
0.144              -0.0004669856       -1.541717
0.148              -0.0004434877       -1.585076
0.152               -0.000423165       -1.628466
0.156              -0.0004049741       -1.671886
0.16               -0.0003889083       -1.715338
0.164              -0.0003765119       -1.758819
0.168              -0.0003672622       -1.802329
0.172              -0.0003606333       -1.845868
0.176              -0.0003581718       -1.889435
0.18               -0.0003588418       -1.933029
0.184              -0.0003621167       -1.976648
0.188              -0.0003695489       -2.020293
0.192              -0.0003806158       -2.063962
0.196              -0.0003942801       -2.107654
0.2                -0.0004131256       -2.151369
0.204              -0.0004350848       -2.195105
0.208              -0.0004601494       -2.238862
0.212              -0.0004888435       -2.282638
0.216              -0.0005221992       -2.326433
0.22                -0.000557625       -2.370245
0.224              -0.0005971947       -2.414074
0.228              -0.0006403937       -2.457919
0.232              -0.0006856663       -2.501779
0.236              -0.0007350851       -2.545652
0.24               -0.0007870979       -2.589539
0.244              -0.0008422235       -2.633439
0.248               -0.000898906       -2.677351
0.252              -0.0009602628       -2.721273
0.256               -0.001022661       -2.765207
0.26                 -0.00108714        -2.80915
0.264               -0.001154218       -2.853103
0.268               -0.001223375       -2.897066
0.272               -0.001294097       -2.941037
0.276               -0.001365861       -2.985018
0.28                -0.001438665       -3.029007
0.284               -0.001513027       -3.073004
0.288               -0.001586871        -3.11701
0.292               -0.001662783       -3.161025
0.296               -0.001738165       -3.205049
0.3                 -0.001813532       -3.249083
0.304               -0.001888874       -3.293127
0.308               -0.001963153        -3.33718
0.312               -0.002036348       -3.381246
0.316                -0.00210898       -3.425323
0.32                -0.002180502       -3.469413
0.324               -0.002249881       -3.513516
0.328               -0.002317607       -3.557635
0.332               -0.002383665        -3.60177
0.336                -0.00244701       -3.645922
0.34                -0.002508132       -3.690093
0.344               -0.002565964       -3.734285
0.348               -0.002621013       -3.778498
0.352                -0.00267325       -3.822736
0.356               -0.002721097       -3.866998
0.36                -0.002764517       -3.911288
0.364               -0.002806068       -3.955608
0.368               -0.002842101       -3.999959
0.372               -0.002874129       -4.044343
0.376               -0.002902622       -4.088765
0.38                -0.002925489       -4.133224
0.384               -0.002944232       -4.177724
0.388                -0.00295778       -4.222267
0.392               -0.002967108       -4.266856
0.396               -0.002971151       -4.311493
0.4                 -0.002969343       -4.356181
0.404                -0.00296369       -4.400923
0.408               -0.002953121        -4.44572
0.412               -0.002936017       -4.490577
0.416               -0.002914921       -4.535496
0.42                -0.002888744       -4.580479
0.424               -0.002857416        -4.62553
0.428               -0.002820891        -4.67065
0.432               -0.002779624       -4.715843
0.436               -0.002733549       -4.761112
0.44                -0.002682609       -4.806459
0.444               -0.002627263       -4.851887
0.448                -0.00256796       -4.897398
0.452               -0.002503592       -4.942996
0.456               -0.002436175       -4.988684
0.46                -0.002364611       -5.034462
0.464               -0.002289859       -5.080334
0.468                -0.00221135       -5.126302
0.472               -0.002130041       -5.172369
0.476               -0.002045871       -5.218536
0.48                -0.001959818       -5.264807
0.484               -0.001869739       -5.311181
0.488               -0.001779696       -5.357664
0.492                -0.00168809       -5.404255
0.496               -0.001594341       -5.450956
0.5                 -0.001500954       -5.497771
0.504               -0.001406353       -5.544697
0.508               -0.001311477       -5.591739
0.512               -0.001216796       -5.638897
0.516               -0.001123287       -5.686173
0.52                -0.001030897       -5.733567
0.524              -0.0009395811       -5.781079
0.528              -0.0008508146       -5.828713
0.532              -0.0007635211       -5.876466
0.536              -0.0006792262        -5.92434
0.54               -0.0005983587       -5.972336
0.544              -0.0005204043       -6.020452
0.548              -0.0004463056        -6.06869
0.552              -0.0003770932        -6.11705
0.556              -0.0003132352        -6.16553
0.56               -0.0002531476       -6.214131
0.564              -0.0001993854       -6.262851
0.568              -0.0001503511       -6.311691
0.572              -0.0001085994        -6.36065
0.576               -7.15545e-05       -6.409726
0.58               -4.279416e-05       -6.458918
0.584              -2.125104e-05       -6.508226
0.588              -6.417007e-06       -6.557647
0.592              -3.271722e-07       -6.607182
0.596              -1.416752e-06       -6.656827
0.6                -1.122986e-05       -6.706582
0.604              -2.821123e-05       -6.756444
0.608              -5.494258e-05       -6.806413
0.612              -9.038471e-05       -6.856485
0.616              -0.0001345276        -6.90666
0.62               -0.0001889428       -6.956935
0.624              -0.0002505076       -7.007308
0.628               -0.000323389       -7.057777
0.632              -0.0004055099       -7.108341
0.636              -0.0004963675       -7.158995
0.64               -0.0005980291        -7.20974
0.644              -0.0007074343        -7.26057
0.648              -0.0008276223       -7.311489
0.652              -0.0009571504       -7.362488
0.656               -0.001094943       -7.413568
0.66                -0.001243088       -7.464728
0.664               -0.001399553       -7.515962
0.668               -0.001566361       -7.567274
0.672               -0.001739974       -7.618656
0.676               -0.001924008       -7.670109
0.68                -0.002114809       -7.721632
0.684               -0.002314524        -7.77322
0.688               -0.002522597       -7.824874
0.692               -0.002736986       -7.876592
0.696               -0.002959734       -7.928373
0.7                 -0.003188324       -7.980213
0.704               -0.003424271       -8.032114
0.708               -0.003665996       -8.084074
0.712               -0.003912486       -8.136091
0.716               -0.004164781       -8.188165
0.72                -0.004422308       -8.240296
0.724                -0.00468305       -8.292482
0.728               -0.004948486       -8.344724
0.732               -0.005217587       -8.397022
0.736               -0.005488738       -8.449376
0.74                -0.005762484       -8.501784
0.744                -0.00603869       -8.554252
0.748               -0.006314809       -8.606775
0.752               -0.006592847       -8.659356
0.756               -0.006870673       -8.711997
0.76                -0.007148717       -8.764699
0.764               -0.007425397       -8.817463
0.768               -0.007700609       -8.870292
0.772               -0.007974817       -8.923186
0.776               -0.008245334       -8.976149
0.78                -0.008513647       -9.029181
0.784               -0.008779092       -9.082288
0.788               -0.009040553       -9.135472
0.792               -0.009296914       -9.188732
0.796               -0.009547996       -9.242077
0.8                 -0.009794212       -9.295508
0.804                -0.01003493       -9.349028
0.808                -0.01026943       -9.402643
0.812                -0.01049612       -9.456353
0.816                -0.01071684       -9.510166
0.82                  -0.0109304       -9.564086
0.824                -0.01113561       -9.618116
0.828                -0.01133229       -9.672261
0.832                -0.01152128       -9.726527
0.836                -0.01170294        -9.78092
0.84                 -0.01187394       -9.835442
0.844                -0.01203669       -9.890101
0.848                -0.01218996         -9.9449
0.852                -0.01233454       -9.999847
0.856                -0.01246968       -10.05495
0.86                 -0.01259525       -10.11021
0.864                -0.01271148       -10.16563
0.868                -0.01281862       -10.22122
0.872                -0.01291603       -10.27699
0.876                -0.01300438       -10.33293
0.88                  -0.0130835       -10.38907
0.884                -0.01315311        -10.4454
0.888                -0.01321562       -10.50193
0.892                -0.01326814       -10.55866
0.896                -0.01331244       -10.61561
0.9                   -0.0133494       -10.67277
0.904                 -0.0133792       -10.73016
0.908                -0.01340062       -10.78777
0.912                -0.01341545       -10.84562
0.916                  -0.013425       -10.90371
0.92                 -0.01342843       -10.96204
0.924                -0.01342608       -11.02062
0.928                -0.01341976       -11.07945
0.932                -0.01340867       -11.13855
0.936                -0.01339567       -11.19791
0.94                   -0.013378       -11.25754
0.944                   -0.01336       -11.31744
0.948                -0.01333937       -11.37763
0.952                -0.01331849       -11.43809
0.956                -0.01329863       -11.49884
0.96                 -0.01327865       -11.55988
0.964                 -0.0132608       -11.62121
0.968                 -0.0132449       -11.68284
0.972                 -0.0132339       -11.74476
0.976                -0.01322648       -11.80699
0.98                 -0.01322358       -11.86952
0.984                -0.01322696       -11.93235
0.988                -0.01323762        -11.9955
0.992                -0.01325527       -12.05895
0.996                -0.01328189       -12.12271
1                    -0.01331935       -12.18678
1.004                  -0.013366       -12.25117
1.008                -0.01342373       -12.31587
1.012                -0.01349344       -12.38088
1.016                -0.01357663        -12.4462
1.02                 -0.01367414       -12.51183
1.024                -0.01378592       -12.57778
1.028                -0.01391394       -12.64404
1.032                -0.01405761        -12.7106
1.036                -0.01421836       -12.77747
1.04                 -0.01439717       -12.84465
1.044                -0.01459513       -12.91214
1.048                -0.01481175       -12.97992
1.052                -0.01504778         -13.048
1.056                -0.01530574       -13.11638
1.06                 -0.01558447       -13.18507
1.064                -0.01588489       -13.25403
1.068                -0.01620795       -13.32331
1.072                -0.01655342       -13.39284
1.076                -0.01692337       -13.46268
1.08                 -0.01731604       -13.53278
1.084                 -0.0177329       -13.60316
1.088                -0.01817385       -13.67381
1.092                -0.01863977       -13.74473
1.096                -0.01913062       -13.81593
1.1                  -0.01964614       -13.88735
1.104                -0.02018739       -13.95904
1.108                -0.02075429         -14.031
1.112                -0.02134561       -14.10321
1.116                -0.02196341       -14.17566
1.12                  -0.0226053       -14.24831
1.124                -0.02327247       -14.32126
1.128                -0.02396563        -14.3944
1.132                -0.02468195       -14.46778
1.136                -0.02542388       -14.54138
1.14                  -0.0261899       -14.61521
1.144                -0.02697813       -14.68925
1.148                -0.02779139       -14.76352
1.152                -0.02862688       -14.83799
1.156                -0.02948486       -14.91268
1.16                 -0.03036361       -14.98757
1.164                -0.03126425       -15.06267
1.168                -0.03218537       -15.13798
1.172                -0.03312649       -15.21348
1.176                -0.03408649       -15.28919
1.18                 -0.03506371        -15.3651
1.184                -0.03606009       -15.44121
1.188                -0.03707253       -15.51751
1.192                -0.03810071       -15.59402
1.196                -0.03914321       -15.67073
1.2                  -0.04020009       -15.74764
1.204                -0.04127044       -15.82475
1.208                 -0.0423525       -15.90206
1.212                -0.04344609       -15.97958
1.216                -0.04454894       -16.05731
1.22                 -0.04566258       -16.13525
1.224                -0.04678267       -16.21341
1.228                -0.04791043       -16.29178
1.232                -0.04904453       -16.37038
1.236                -0.05018453       -16.44921
1.24                 -0.05132794       -16.52827
1.244                -0.05247446       -16.60757
1.248                -0.05362365       -16.68712
1.252                -0.05477384       -16.76692
1.256                -0.05592423       -16.84698
1.26                  -0.0570752       -16.92731
1.264                -0.05822364       -17.00792
1.268                -0.05937049       -17.08881
1.272                 -0.0605137       -17.16999
1.276                -0.06165368       -17.25147
1.28                 -0.06278963       -17.33327
1.284                -0.06392038        -17.4154
1.288                -0.06504434       -17.49785
1.292                -0.06616389       -17.58065
1.296                -0.06727445       -17.66381
1.3                  -0.06837895       -17.74734
1.304                -0.06947652       -17.83125
1.308                -0.07056592       -17.91555
1.312                -0.07164634       -18.00025
1.316                -0.07271891       -18.08538
1.32                 -0.07378213       -18.17094
1.324                -0.07483837       -18.25694
1.328                -0.07588492       -18.34341
1.332                -0.07692371       -18.43035
1.336                -0.07795458       -18.51778
1.34                 -0.07897717       -18.60571
1.344                -0.07999247       -18.69416
1.348                -0.08100059       -18.78314
1.352                -0.08200363       -18.87266
1.356                -0.08299935       -18.96275
1.36                 -0.08399008       -19.05342
1.364                -0.08497669       -19.14467
1.368                -0.08596022       -19.23654
1.372                 -0.0869412       -19.32902
1.376                -0.08792005       -19.42214
1.38                   -0.088899        -19.5159
1.384                -0.08987933       -19.61033
1.388                 -0.0908616       -19.70544
1.392                -0.09184799       -19.80124
1.396                -0.09283851       -19.89774
1.4                  -0.09383672       -19.99497
1.404                  -0.094843       -20.09292
1.408                -0.09585898       -20.19162
1.412                -0.09688595       -20.29108
1.416                 -0.0979277       -20.39131
1.42                 -0.09898452       -20.49232
1.424                 -0.1000581       -20.59412
1.428                 -0.1011521       -20.69673
1.432                 -0.1022671       -20.80015
1.436                 -0.1034062        -20.9044
1.44                  -0.1045697       -21.00948
1.444                 -0.1057626        -21.1154
1.448                 -0.1069853       -21.22218
1.452                 -0.1082407       -21.32982
1.456                 -0.1095302       -21.43833
1.46                  -0.1108586       -21.54772
1.464                 -0.1122247       -21.65799
1.468                 -0.1136342       -21.76914
1.472                 -0.1150882        -21.8812
1.476                 -0.1165887       -21.99415
1.48                   -0.118138       -22.10801
1.484                 -0.1197398       -22.22278
1.488                 -0.1213953       -22.33846
1.492                 -0.1231072       -22.45505
1.496                 -0.1248779       -22.57257
1.5                   -0.1267103         -22.691
1.504                 -0.1286063       -22.81036
1.508                  -0.130568       -22.93064
1.512                 -0.1325978       -23.05185
1.516                 -0.1346992       -23.17398
1.52                  -0.1368725       -23.29703
1.524                 -0.1391205       -23.42101
1.528                 -0.1414456        -23.5459
1.532                 -0.1438494       -23.67172
1.536                 -0.1463353       -23.79846
1.54                  -0.1489033       -23.92611
1.544                 -0.1515562       -24.05467
1.548                 -0.1542957       -24.18415
1.552                 -0.1571249       -24.31454
1.556                 -0.1600424       -24.44583
1.56                  -0.1630524       -24.57802
1.564                 -0.1661549       -24.71111
1.568                 -0.1693527       -24.84509
1.572                 -0.1726461       -24.97997
1.576                 -0.1760358       -25.11573
1.58                  -0.1795247       -25.25238
1.584                 -0.1831114        -25.3899
1.588                 -0.1868004        -25.5283
1.592                 -0.1905893       -25.66758
1.596                 -0.1944795       -25.80772
1.6                   -0.1984744       -25.94873
1.604                 -0.2025713        -26.0906
1.608                 -0.2067708       -26.23333
1.612                 -0.2110757       -26.37692
1.616                 -0.2154847       -26.52137
1.62                  -0.2199981       -26.66667
1.624                 -0.2246171       -26.81283
1.628                 -0.2293404       -26.95984
1.632                 -0.2341683       -27.10771
1.636                 -0.2391016       -27.25642
1.64                  -0.2441393         -27.406
1.644                 -0.2492806       -27.55643
1.648                 -0.2545268       -27.70772
1.652                  -0.259877       -27.85989
1.656                 -0.2653297       -28.01291
1.66                  -0.2708866       -28.16682
1.664                 -0.2765447        -28.3216
1.668                 -0.2823036       -28.47727
1.672                 -0.2881652       -28.63384
1.676                 -0.2941274       -28.79131
1.68                  -0.3001877        -28.9497
1.684                 -0.3063497       -29.10901
1.688                 -0.3126077       -29.26926
1.692                 -0.3189661       -29.43047
1.696                 -0.3254191       -29.59264
1.7                   -0.3319712       -29.75579
1.704                 -0.3386183       -29.91995
1.708                 -0.3453597       -30.08512
1.712                 -0.3521973       -30.25133
1.716                 -0.3591283        -30.4186
1.72                  -0.3661532       -30.58695
1.724                 -0.3732731        -30.7564
1.728                 -0.3804856       -30.92698
1.732                 -0.3877901       -31.09872
1.736                 -0.3951903       -31.27165
1.74                  -0.4026815       -31.44577
1.744                 -0.4102663       -31.62114
1.748                  -0.417945       -31.79779
1.752                 -0.4257171       -31.97573
1.756                 -0.4335839       -32.15501
1.76                  -0.4415466       -32.33567
1.764                 -0.4496052       -32.51773
1.768                 -0.4577619       -32.70125
1.772                 -0.4660152       -32.88624
1.776                 -0.4743704       -33.07276
1.78                  -0.4828277       -33.26085
1.784                 -0.4913886       -33.45054
1.788                 -0.5000562       -33.64188
1.792                 -0.5088309       -33.83492
1.796                  -0.517718        -34.0297
1.8                   -0.5267183       -34.22626
1.804                 -0.5358363       -34.42466
1.808                 -0.5450749       -34.62493
1.812                   -0.55444       -34.82714
1.816                 -0.5639311       -35.03131
1.82                  -0.5735571       -35.23752
1.824                 -0.5833207       -35.44581
1.828                 -0.5932256       -35.65622
1.832                 -0.6032799       -35.86882
1.836                 -0.6134882       -36.08364
1.84                  -0.6238558       -36.30076
1.844                 -0.6343907       -36.52021
1.848                 -0.6450975       -36.74204
1.852                 -0.6559834       -36.96632
1.856                 -0.6670575        -37.1931
1.86                  -0.6783269       -37.42242
1.864                 -0.6897982       -37.65435
1.868                 -0.7014824       -37.88894
1.872                 -0.7133864       -38.12623
1.876                 -0.7255196       -38.36628
1.88                  -0.7378917       -38.60914
1.884                 -0.7505147       -38.85487
1.888                 -0.7633958       -39.10352
1.892                 -0.7765464       -39.35513
1.896                 -0.7899797       -39.60975
1.9                   -0.8037042       -39.86744
1.904                 -0.8177345       -40.12826
1.908                 -0.8320818       -40.39224
1.912                 -0.8467556       -40.65942
1.916                 -0.8617727       -40.92986
1.92                  -0.8771459       -41.20361
1.924                 -0.8928859       -41.48071
1.928                 -0.9090106       -41.76119
1.932                 -0.9255322       -42.04512
1.936                  -0.942464       -42.33251
1.94                   -0.959824       -42.62342
1.944                 -0.9776275        -42.9179
1.948                 -0.9958874       -43.21595
1.952                  -1.014621       -43.51764
1.956                  -1.033846       -43.82299
1.96                   -1.053579       -44.13205
1.964                  -1.073835       -44.44483
1.968                  -1.094635       -44.76138
1.972                  -1.115993       -45.08171
1.976                  -1.137929       -45.40587
1.98                   -1.160461       -45.73388
1.984                   -1.18361       -46.06575
1.988                  -1.207391       -46.40152
1.992                  -1.231825        -46.7412
1.996                  -1.256934       -47.08484
2                      -1.282734       -47.43243
2.004                   -1.30925       -47.78399
2.008                    -1.3365       -48.13955
2.012                  -1.364504       -48.49912
2.016                  -1.393286        -48.8627
2.02                   -1.422867       -49.23033
2.024                  -1.453267         -49.602
2.028                  -1.484511       -49.97772
2.032                   -1.51662       -50.35752
2.036                  -1.549617       -50.74136
2.04                   -1.583528        -51.1293
2.044                  -1.618372        -51.5213
2.048                  -1.654179        -51.9174
2.052                  -1.690966       -52.31756
2.056                  -1.728767       -52.72182
2.06                   -1.767601       -53.13016
2.064                  -1.807493       -53.54257
2.068                  -1.848473       -53.95906
2.072                  -1.890564       -54.37963
2.076                  -1.933797       -54.80426
2.08                   -1.978195       -55.23294
2.084                  -2.023789       -55.66568
2.088                  -2.070606       -56.10247
2.092                  -2.118674       -56.54328
2.096                  -2.168025       -56.98812
2.1                    -2.218686       -57.43698
2.104                  -2.270689       -57.88982
2.108                  -2.324065       -58.34668
2.112                  -2.378846       -58.80749
2.116                  -2.435063       -59.27228
2.12                    -2.49275       -59.74101
2.124                  -2.551942       -60.21367
2.128                  -2.612672       -60.69025
2.132                  -2.674975       -61.17075
2.136                  -2.738889       -61.65512
2.14                    -2.80445       -62.14337
2.144                  -2.871695       -62.63548
2.148                  -2.940664       -63.13142
2.152                  -3.011397        -63.6312
2.156                  -3.083934       -64.13478
2.16                    -3.15832       -64.64216
2.164                  -3.234595       -65.15332
2.168                  -3.312806       -65.66825
2.172                  -3.392998       -66.18692
2.176                  -3.475219       -66.70935
2.18                   -3.559516       -67.23549
2.184                  -3.645942       -67.76533
2.188                  -3.734549        -68.2989
2.192                  -3.825391       -68.83616
2.196                  -3.918521       -69.37709
2.2                    -4.014002       -69.92172
2.204                   -4.11189       -70.47001
2.208                  -4.212249       -71.02198
2.212                  -4.315144        -71.5776
2.216                  -4.420642       -72.13692
2.22                   -4.528813       -72.69989
2.224                  -4.639732       -73.26655
2.228                  -4.753472        -73.8369
2.232                  -4.870115       -74.41094
2.236                  -4.989742       -74.98871
2.24                   -5.112444       -75.57021
2.244                  -5.238309       -76.15547
2.248                  -5.367434       -76.74453
2.252                  -5.499916       -77.33742
2.256                  -5.635865       -77.93416
2.26                    -5.77539       -78.53482
2.264                  -5.918607       -79.13944
2.268                   -6.06564        -79.7481
2.272                  -6.216619       -80.36085
2.276                   -6.37168       -80.97778
2.28                   -6.530971       -81.59897
2.284                  -6.694643       -82.22454
2.288                  -6.862862        -82.8546
2.292                  -7.035801       -83.48926
2.296                  -7.213647       -84.12869
2.3                    -7.396593       -84.77304
2.304                  -7.584853       -85.42251
2.308                  -7.778652       -86.07729
2.312                  -7.978231       -86.73762
2.316                  -8.183848       -87.40375
2.32                   -8.395785       -88.07601
2.324                  -8.614339       -88.75468
2.328                  -8.839836       -89.44019
2.332                  -9.072625       -90.13291
2.336                  -9.313087       -90.83336
2.34                   -9.561636       -91.54206
2.344                  -9.818721       -92.25961
2.348                  -10.08483       -92.98675
2.352                  -10.36051       -93.72425
2.356                  -10.64635       -94.47303
2.36                   -10.94299       -95.23416
2.364                  -11.25117       -96.00884
2.368                  -11.57167        -96.7985
2.372                  -11.90539       -97.60475
2.376                  -12.25331       -98.42954
2.38                   -12.61656        -99.2751
2.384                  -12.99638       -100.1441
2.388                   -13.3942       -101.0397
2.392                  -13.81163       -101.9658
2.396                  -14.25054       -102.9268
2.4                    -14.71303       -103.9286
2.404                  -15.20159       -104.9778