! TOUCHSTONE file generated by CST MICROWAVE STUDIO
! Date and time: Fri May  6 15:38:54 2022
! Project name: ant1_ceramic_sweep_fr4.cst
! Parameters = {e=0.035; h=1.6; i=0.8; l1=0.495; l2=20.96; ls=80; wl=1.7; ws=30}
! Header version: 2018
! Port assignment regex: !\s*Touchstone port\s*([0-9]+)\s*=\s*(CST MWS port|CST DS port)\s*([0-9]+|Zmin|Zmax)\s*\(\"(.*)\"\)(\s*mode\s*([0-9]+))?.*
! Touchstone port assignment:
! Touchstone port 1 = CST MWS port 1 ("")
# GHz S DB R 50
0                    -0.01471932              -0
0.004                -0.01470784     -0.04028188
0.008                -0.01467391     -0.08057267
0.012                -0.01461701      -0.1208812
0.016                -0.01453714      -0.1612164
0.02                 -0.01443582      -0.2015869
0.024                -0.01431202      -0.2420015
0.028                -0.01416623      -0.2824684
0.032                -0.01399945      -0.3229963
0.036                 -0.0138122      -0.3635933
0.04                 -0.01360546      -0.4042673
0.044                -0.01337818      -0.4450261
0.048                -0.01313238      -0.4858772
0.052                -0.01286959      -0.5268279
0.056                -0.01258821      -0.5678852
0.06                 -0.01229234      -0.6090556
0.064                -0.01197986      -0.6503455
0.068                -0.01165332      -0.6917609
0.072                -0.01131317      -0.7333075
0.076                -0.01096093      -0.7749903
0.08                 -0.01059861      -0.8168144
0.084                 -0.0102246      -0.8587841
0.088               -0.009842464      -0.9009034
0.092               -0.009451636      -0.9431759
0.096               -0.009054644       -0.985605
0.1                 -0.008652982       -1.028193
0.104               -0.008247108       -1.070943
0.108               -0.007837999       -1.113855
0.112               -0.007427668       -1.156932
0.116               -0.007017609       -1.200175
0.12                -0.006607764       -1.243584
0.124               -0.006200148       -1.287158
0.128               -0.005795741       -1.330898
0.132                -0.00539708       -1.374801
0.136               -0.005004111       -1.418868
0.14                -0.004618337       -1.463096
0.144               -0.004240747       -1.507482
0.148               -0.003873885       -1.552024
0.152               -0.003517191       -1.596719
0.156               -0.003172697       -1.641563
0.16                -0.002840884       -1.686553
0.164               -0.002522757       -1.731683
0.168               -0.002220875       -1.776949
0.172               -0.001934177       -1.822346
0.176               -0.001663683       -1.867868
0.18                -0.001412476       -1.913511
0.184               -0.001179514       -1.959266
0.188              -0.0009658229       -2.005129
0.192              -0.0007714005       -2.051093
0.196              -0.0005983181       -2.097151
0.2                -0.0004445139       -2.143295
0.204              -0.0003146555       -2.189519
0.208              -0.0002072094       -2.235815
0.212              -0.0001216758       -2.282176
0.216              -5.808004e-05       -2.328594
0.22               -1.800863e-05        -2.37506
0.224              -4.550872e-07       -2.421568
0.228              -7.536864e-06       -2.468109
0.232              -3.618394e-05       -2.514675
0.236              -8.955108e-05       -2.561259
0.24               -0.0001661395       -2.607852
0.244              -0.0002639317       -2.654447
0.248              -0.0003855764       -2.701035
0.252              -0.0005300939        -2.74761
0.256              -0.0006954818       -2.794164
0.26               -0.0008833618       -2.840688
0.264               -0.001090693       -2.887177
0.268                -0.00131962       -2.933624
0.272               -0.001567108        -2.98002
0.276               -0.001833753        -3.02636
0.28                -0.002119106       -3.072638
0.284               -0.002421175       -3.118848
0.288               -0.002740548       -3.164984
0.292               -0.003074717        -3.21104
0.296               -0.003423238       -3.257013
0.3                 -0.003786183       -3.302896
0.304               -0.004159997       -3.348687
0.308               -0.004545787       -3.394381
0.312               -0.004942066       -3.439975
0.316               -0.005346308       -3.485466
0.32                -0.005758575       -3.530852
0.324               -0.006176851        -3.57613
0.328               -0.006601717       -3.621299
0.332               -0.007028549       -3.666357
0.336               -0.007459987       -3.711305
0.34                -0.007891402       -3.756142
0.344               -0.008322846       -3.800867
0.348               -0.008752771       -3.845483
0.352               -0.009180697        -3.88999
0.356               -0.009604557        -3.93439
0.36                 -0.01002333       -3.978686
0.364                -0.01043548       -4.022878
0.368                -0.01083889       -4.066974
0.372                -0.01123464       -4.110973
0.376                -0.01161957       -4.154881
0.38                 -0.01199261       -4.198704
0.384                -0.01235479       -4.242445
0.388                -0.01270139        -4.28611
0.392                -0.01303443       -4.329705
0.396                -0.01335077       -4.373235
0.4                  -0.01365189       -4.416709
0.404                -0.01393409       -4.460131
0.408                -0.01419729       -4.503511
0.412                -0.01444139       -4.546856
0.416                -0.01466634       -4.590174
0.42                 -0.01486942       -4.633472
0.424                -0.01505209       -4.676759
0.428                -0.01521216       -4.720045
0.432                -0.01535003       -4.763338
0.436                -0.01546506       -4.806646
0.44                 -0.01555608       -4.849981
0.444                -0.01562399       -4.893349
0.448                 -0.0156671       -4.936762
0.452                -0.01568836        -4.98023
0.456                -0.01568452       -5.023761
0.46                 -0.01565646       -5.067365
0.464                -0.01560454       -5.111051
0.468                -0.01552962       -5.154831
0.472                -0.01543103       -5.198713
0.476                -0.01530963       -5.242706
0.48                 -0.01516473       -5.286821
0.484                -0.01499823       -5.331066
0.488                -0.01480996        -5.37545
0.492                -0.01459973       -5.419983
0.496                -0.01436997       -5.464673
0.5                   -0.0141205       -5.509529
0.504                -0.01385114       -5.554557
0.508                -0.01356481       -5.599768
0.512                -0.01326187       -5.645168
0.516                -0.01294214       -5.690763
0.52                 -0.01260648       -5.736562
0.524                -0.01225887       -5.782572
0.528                -0.01189657       -5.828796
0.532                -0.01152458       -5.875242
0.536                -0.01114067       -5.921915
0.54                 -0.01074831       -5.968819
0.544                -0.01034788        -6.01596
0.548               -0.009941826        -6.06334
0.552               -0.009528963       -6.110963
0.556               -0.009113839       -6.158833
0.56                -0.008696303       -6.206951
0.564               -0.008276768        -6.25532
0.568               -0.007858756       -6.303941
0.572               -0.007442664       -6.352816
0.576               -0.007028935       -6.401943
0.58                -0.006621094       -6.451324
0.584               -0.006219571       -6.500958
0.588               -0.005824845       -6.550842
0.592                -0.00543941       -6.600977
0.596               -0.005063747        -6.65136
0.6                 -0.004700394       -6.701989
0.604               -0.004350386       -6.752859
0.608               -0.004014159       -6.803969
0.612               -0.003693312       -6.855313
0.616               -0.003389382       -6.906887
0.62                -0.003104424       -6.958687
0.624                -0.00283744       -7.010707
0.628               -0.002589989       -7.062943
0.632               -0.002364735       -7.115386
0.636               -0.002161693       -7.168032
0.64                -0.001980425       -7.220873
0.644                -0.00182354       -7.273904
0.648               -0.001690158       -7.327113
0.652               -0.001583402       -7.380498
0.656               -0.001502881       -7.434049
0.66                -0.001446607       -7.487757
0.664                -0.00141937       -7.541615
0.668               -0.001417665       -7.595614
0.672               -0.001443658       -7.649746
0.676               -0.001498527       -7.704003
0.68                -0.001579826       -7.758375
0.684               -0.001691345       -7.812854
0.688               -0.001828547       -7.867431
0.692                -0.00199523       -7.922097
0.696                -0.00218892       -7.976845
0.7                 -0.002409836       -8.031663
0.704               -0.002660165       -8.086546
0.708               -0.002934902       -8.141484
0.712               -0.003236279        -8.19647
0.716               -0.003564484       -8.251494
0.72                -0.003917072       -8.306549
0.724               -0.004293671       -8.361629
0.728               -0.004694465       -8.416725
0.732               -0.005118578       -8.471829
0.736               -0.005563545       -8.526937
0.74                -0.006029979       -8.582044
0.744               -0.006516107       -8.637137
0.748               -0.007020897       -8.692217
0.752               -0.007543945       -8.747278
0.756               -0.008082842       -8.802314
0.76                -0.008637132       -8.857321
0.764               -0.009204371       -8.912294
0.768               -0.009785132       -8.967232
0.772                -0.01037636       -9.022131
0.776                -0.01097761        -9.07699
0.78                 -0.01158742       -9.131804
0.784                -0.01220267       -9.186575
0.788                -0.01282387       -9.241303
0.792                 -0.0134485       -9.295985
0.796                 -0.0140755       -9.350623
0.8                  -0.01470371       -9.405222
0.804                -0.01533065       -9.459777
0.808                -0.01595513       -9.514293
0.812                -0.01657501       -9.568774
0.816                -0.01719071       -9.623223
0.82                 -0.01779899       -9.677645
0.824                -0.01839878       -9.732041
0.828                -0.01898875       -9.786421
0.832                -0.01956727       -9.840787
0.836                -0.02013364       -9.895147
0.84                 -0.02068604       -9.949508
0.844                -0.02122326       -10.00388
0.848                  -0.021744       -10.05826
0.852                -0.02224651       -10.11267
0.856                -0.02273149       -10.16711
0.86                 -0.02319602        -10.2216
0.864                 -0.0236399       -10.27613
0.868                -0.02406172       -10.33073
0.872                 -0.0244611        -10.3854
0.876                -0.02483775       -10.44015
0.88                  -0.0251897         -10.495
0.884                -0.02551661       -10.54995
0.888                -0.02581911       -10.60502
0.892                 -0.0260957       -10.66022
0.896                -0.02634658       -10.71556
0.9                  -0.02657074       -10.77106
0.904                -0.02676879       -10.82672
0.908                -0.02694028       -10.88256
0.912                -0.02708478       -10.93859
0.916                -0.02720282       -10.99482
0.92                 -0.02729553       -11.05128
0.924                -0.02736137       -11.10796
0.928                -0.02740247       -11.16488
0.932                -0.02741785       -11.22206
0.936                -0.02740909       -11.27951
0.94                 -0.02737618       -11.33724
0.944                -0.02731976       -11.39525
0.948                 -0.0272429       -11.45357
0.952                 -0.0271426       -11.51221
0.956                -0.02702354       -11.57117
0.96                 -0.02688366       -11.63047
0.964                -0.02672724       -11.69011
0.968                -0.02655321       -11.75012
0.972                -0.02636437       -11.81049
0.976                -0.02616061       -11.87124
0.98                 -0.02594424       -11.93237
0.984                -0.02571787        -11.9939
0.988                -0.02548011       -12.05583
0.992                -0.02523622       -12.11817
0.996                -0.02498533       -12.18092
1                    -0.02473018        -12.2441
1.004                -0.02447152       -12.30771
1.008                -0.02421245       -12.37175
1.012                -0.02395495       -12.43623
1.016                -0.02369857       -12.50116
1.02                 -0.02344885       -12.56652
1.024                -0.02320384       -12.63234
1.028                -0.02296806        -12.6986
1.032                 -0.0227428       -12.76532
1.036                 -0.0225289       -12.83249
1.04                 -0.02232931       -12.90012
1.044                -0.02214494       -12.96819
1.048                -0.02197858       -13.03672
1.052                -0.02183196       -13.10567
1.056                 -0.0217069       -13.17512
1.06                 -0.02160501       -13.24496
1.064                -0.02152897       -13.31528
1.068                -0.02147739       -13.38601
1.072                -0.02145533       -13.45718
1.076                -0.02146269       -13.52882
1.08                 -0.02150119       -13.60084
1.084                -0.02157231       -13.67326
1.088                -0.02167691        -13.7461
1.092                -0.02181746       -13.81935
1.096                -0.02199476       -13.89298
1.1                  -0.02220928       -13.96702
1.104                 -0.0224623       -14.04141
1.108                -0.02275637       -14.11619
1.112                -0.02309022       -14.19129
1.116                -0.02346581       -14.26678
1.12                 -0.02388359       -14.34259
1.124                -0.02434336       -14.41874
1.128                -0.02484668       -14.49521
1.132                -0.02539445       -14.57199
1.136                -0.02598645       -14.64907
1.14                 -0.02662088       -14.72645
1.144                -0.02730069        -14.8041
1.148                -0.02802449       -14.88203
1.152                -0.02879265       -14.96022
1.156                -0.02960387       -15.03866
1.16                 -0.03045903       -15.11734
1.164                -0.03135736       -15.19625
1.168                -0.03229812       -15.27538
1.172                -0.03328084       -15.35474
1.176                -0.03430458       -15.43429
1.18                 -0.03536838       -15.51404
1.184                -0.03647084       -15.59399
1.188                -0.03761341       -15.67411
1.192                -0.03879209        -15.7544
1.196                -0.04000605       -15.83487
1.2                  -0.04125586       -15.91549
1.204                -0.04253822       -15.99627
1.208                -0.04385363        -16.0772
1.212                -0.04519851       -16.15828
1.216                -0.04657215        -16.2395
1.22                 -0.04797313       -16.32086
1.224                -0.04939937       -16.40235
1.228                -0.05084989       -16.48399
1.232                -0.05232126       -16.56575
1.236                -0.05381319       -16.64765
1.24                 -0.05532297       -16.72969
1.244                -0.05684896       -16.81186
1.248                -0.05838929       -16.89417
1.252                -0.05994223       -16.97662
1.256                -0.06150575       -17.05922
1.26                 -0.06307779       -17.14196
1.264                -0.06465633       -17.22487
1.268                -0.06623922       -17.30793
1.272                -0.06782431       -17.39117
1.276                -0.06941063       -17.47458
1.28                 -0.07099585       -17.55818
1.284                 -0.0725784       -17.64198
1.288                -0.07415711       -17.72598
1.292                -0.07572739        -17.8102
1.296                -0.07729086       -17.89466
1.3                  -0.07884499       -17.97936
1.304                -0.08038774       -18.06431
1.308                -0.08191787       -18.14954
1.312                -0.08343314       -18.23506
1.316                -0.08493428       -18.32088
1.32                 -0.08641811       -18.40701
1.324                -0.08788506       -18.49349
1.328                -0.08933383       -18.58033
1.332                -0.09076316       -18.66753
1.336                -0.09217187       -18.75514
1.34                 -0.09356049       -18.84315
1.344                 -0.0949283        -18.9316
1.348                -0.09627347        -19.0205
1.352                -0.09759705       -19.10987
1.356                 -0.0988989       -19.19974
1.36                  -0.1001795       -19.29013
1.364                 -0.1014381       -19.38105
1.368                 -0.1026754       -19.47253
1.372                 -0.1038914       -19.56459
1.376                 -0.1050875       -19.65726
1.38                  -0.1062641       -19.75056
1.384                 -0.1074228        -19.8445
1.388                  -0.108563       -19.93911
1.392                 -0.1096868       -20.03442
1.396                 -0.1107958       -20.13044
1.4                   -0.1118912       -20.22719
1.404                  -0.112975        -20.3247
1.408                  -0.114049       -20.42299
1.412                 -0.1151141       -20.52207
1.416                 -0.1161729       -20.62198
1.42                  -0.1172277       -20.72273
1.424                 -0.1182812       -20.82433
1.428                  -0.119334       -20.92681
1.432                 -0.1203911       -21.03019
1.436                 -0.1214535       -21.13447
1.44                  -0.1225246       -21.23969
1.444                 -0.1236066       -21.34586
1.448                 -0.1247031       -21.45299
1.452                 -0.1258173        -21.5611
1.456                 -0.1269518       -21.67019
1.46                  -0.1281095        -21.7803
1.464                 -0.1292938       -21.89142
1.468                 -0.1305089       -22.00358
1.472                 -0.1317577       -22.11677
1.476                 -0.1330428       -22.23102
1.48                  -0.1343689       -22.34632
1.484                 -0.1357386        -22.4627
1.488                 -0.1371552       -22.58015
1.492                 -0.1386236       -22.69869
1.496                 -0.1401458       -22.81831
1.5                   -0.1417273       -22.93904
1.504                 -0.1433685       -23.06085
1.508                 -0.1450765       -23.18377
1.512                  -0.146853       -23.30779
1.516                 -0.1487008       -23.43292
1.52                  -0.1506255       -23.55915
1.524                 -0.1526272       -23.68649
1.528                 -0.1547125       -23.81493
1.532                  -0.156883       -23.94448
1.536                  -0.159142       -24.07512
1.54                  -0.1614932       -24.20686
1.544                 -0.1639389       -24.33969
1.548                 -0.1664826       -24.47361
1.552                 -0.1691275       -24.60861
1.556                 -0.1718758       -24.74469
1.56                  -0.1747312       -24.88184
1.564                  -0.177693       -25.02005
1.568                 -0.1807673       -25.15931
1.572                 -0.1839559       -25.29963
1.576                 -0.1872596       -25.44099
1.58                  -0.1906805       -25.58337
1.584                  -0.194222       -25.72679
1.588                  -0.197884       -25.87121
1.592                 -0.2016701       -26.01665
1.596                 -0.2055808       -26.16308
1.6                   -0.2096177       -26.31051
1.604                 -0.2137807       -26.45891
1.608                 -0.2180729       -26.60828
1.612                 -0.2224949       -26.75862
1.616                 -0.2270462       -26.90991
1.62                  -0.2317284       -27.06216
1.624                 -0.2365419       -27.21534
1.628                 -0.2414881       -27.36946
1.632                 -0.2465656       -27.52451
1.636                 -0.2517746       -27.68047
1.64                  -0.2571167       -27.83736
1.644                 -0.2625904       -27.99515
1.648                 -0.2681951       -28.15386
1.652                 -0.2739322       -28.31348
1.656                 -0.2797995         -28.474
1.66                  -0.2857964       -28.63542
1.664                 -0.2919238       -28.79775
1.668                 -0.2981797       -28.96098
1.672                 -0.3045626       -29.12513
1.676                 -0.3110739       -29.29018
1.68                  -0.3177095       -29.45616
1.684                   -0.32447       -29.62306
1.688                 -0.3313541       -29.79089
1.692                 -0.3383613       -29.95966
1.696                 -0.3454892       -30.12939
1.7                   -0.3527378       -30.30008
1.704                 -0.3601045       -30.47174
1.708                  -0.367588        -30.6444
1.712                 -0.3751891       -30.81807
1.716                  -0.382906       -30.99277
1.72                  -0.3907354       -31.16853
1.724                 -0.3986786       -31.34535
1.728                 -0.4067337       -31.52326
1.732                 -0.4148989       -31.70229
1.736                 -0.4231759       -31.88248
1.74                  -0.4315625       -32.06383
1.744                 -0.4400568        -32.2464
1.748                 -0.4486583        -32.4302
1.752                 -0.4573709       -32.61528
1.756                 -0.4661895       -32.80166
1.76                  -0.4751157       -32.98938
1.764                 -0.4841512        -33.1785
1.768                 -0.4932952       -33.36903
1.772                 -0.5025486       -33.56104
1.776                  -0.511911       -33.75454
1.78                  -0.5213866       -33.94962
1.784                 -0.5309732        -34.1463
1.788                 -0.5406753       -34.34462
1.792                 -0.5504936       -34.54465
1.796                 -0.5604315       -34.74642
1.8                   -0.5704891       -34.95001
1.804                  -0.580673       -35.15545
1.808                 -0.5909824        -35.3628
1.812                 -0.6014246       -35.57212
1.816                 -0.6120004       -35.78346
1.82                  -0.6227158       -35.99689
1.824                 -0.6335771       -36.21247
1.828                 -0.6445872       -36.43024
1.832                 -0.6557517       -36.65027
1.836                 -0.6670768       -36.87262
1.84                   -0.678569       -37.09735
1.844                 -0.6902359       -37.32453
1.848                 -0.7020834       -37.55421
1.852                 -0.7141195       -37.78646
1.856                 -0.7263521       -38.02134
1.86                  -0.7387901       -38.25891
1.864                 -0.7514428       -38.49923
1.868                 -0.7643193       -38.74237
1.872                  -0.777429       -38.98839
1.876                 -0.7907827       -39.23736
1.88                  -0.8043913       -39.48932
1.884                 -0.8182645       -39.74433
1.888                 -0.8324158       -40.00247
1.892                 -0.8468567       -40.26379
1.896                 -0.8616001       -40.52836
1.9                    -0.876659       -40.79622
1.904                 -0.8920462       -41.06743
1.908                 -0.9077755       -41.34205
1.912                 -0.9238627       -41.62015
1.916                 -0.9403213       -41.90175
1.92                  -0.9571668       -42.18692
1.924                 -0.9744161       -42.47572
1.928                 -0.9920841       -42.76819
1.932                  -1.010187       -43.06438
1.936                  -1.028742       -43.36433
1.94                   -1.047768        -43.6681
1.944                   -1.06728       -43.97571
1.948                    -1.0873       -44.28723
1.952                  -1.107844       -44.60268
1.956                  -1.128931       -44.92212
1.96                    -1.15058       -45.24556
1.964                  -1.172813       -45.57305
1.968                  -1.195649       -45.90462
1.972                  -1.219108        -46.2403
1.976                  -1.243213       -46.58013
1.98                   -1.267982       -46.92413
1.984                   -1.29344       -47.27232
1.988                  -1.319607       -47.62474
1.992                  -1.346506        -47.9814
1.996                   -1.37416       -48.34232
2                      -1.402594       -48.70753
2.004                  -1.431827       -49.07703
2.008                  -1.461886       -49.45085
2.012                  -1.492796       -49.82899
2.016                   -1.52458       -50.21147
2.02                   -1.557263        -50.5983
2.024                  -1.590872       -50.98949
2.028                  -1.625432       -51.38504
2.032                  -1.660968       -51.78495
2.036                  -1.697509       -52.18922
2.04                   -1.735078       -52.59788
2.044                  -1.773707       -53.01089
2.048                  -1.813422       -53.42829
2.052                  -1.854251       -53.85004
2.056                  -1.896221       -54.27614
2.06                   -1.939363        -54.7066
2.064                  -1.983707       -55.14141
2.068                  -2.029283       -55.58055
2.072                  -2.076119       -56.02401
2.076                   -2.12425       -56.47179
2.08                   -2.173704       -56.92387
2.084                  -2.224516       -57.38024
2.088                  -2.276718       -57.84087
2.092                  -2.330343       -58.30578
2.096                  -2.385424       -58.77491
2.1                    -2.441997       -59.24827
2.104                  -2.500099       -59.72583
2.108                  -2.559763       -60.20758
2.112                  -2.621028       -60.69351
2.116                  -2.683931       -61.18356
2.12                   -2.748511       -61.67776
2.124                  -2.814807       -62.17605
2.128                  -2.882861       -62.67844
2.132                  -2.952713       -63.18489
2.136                  -3.024406       -63.69537
2.14                   -3.097983       -64.20988
2.144                  -3.173492        -64.7284
2.148                  -3.250975       -65.25088
2.152                  -3.330483       -65.77734
2.156                  -3.412063       -66.30773
2.16                   -3.495766       -66.84204
2.164                  -3.581644       -67.38026
2.168                  -3.669751       -67.92236
2.172                  -3.760141       -68.46832
2.176                  -3.852874       -69.01814
2.18                   -3.948008        -69.5718
2.184                  -4.045606       -70.12928
2.188                   -4.14573       -70.69057
2.192                  -4.248447       -71.25566
2.196                  -4.353828       -71.82455
2.2                    -4.461941       -72.39724
2.204                  -4.572866       -72.97372
2.208                  -4.686676       -73.55399
2.212                  -4.803456       -74.13804
2.216                  -4.923288        -74.7259
2.22                   -5.046263       -75.31757
2.224                  -5.172474       -75.91308
2.228                  -5.302017       -76.51242
2.232                  -5.434997       -77.11563
2.236                  -5.571518       -77.72275
2.24                   -5.711697       -78.33382
2.244                  -5.855651       -78.94887
2.248                  -6.003508       -79.56796
2.252                  -6.155398       -80.19116
2.256                  -6.311463        -80.8185
2.26                    -6.47185        -81.4501
2.264                  -6.636718       -82.08604
2.268                  -6.806235       -82.72643
2.272                  -6.980577       -83.37137
2.276                  -7.159935       -84.02103
2.28                   -7.344509       -84.67553
2.284                  -7.534516       -85.33507
2.288                  -7.730188       -85.99982
2.292                  -7.931772       -86.67003
2.296                  -8.139532       -87.34592
2.3                    -8.353756       -88.02779
2.304                  -8.574752       -88.71597
2.308                  -8.802853       -89.41081
2.312                  -9.038421       -90.11272
2.316                  -9.281846       -90.82217
2.32                   -9.533556       -91.53968
2.324                  -9.794012       -92.26589
2.328                  -10.06372       -93.00146
2.332                  -10.34325        -93.7472
2.336                   -10.6332       -94.50401
2.34                   -10.93425       -95.27291
2.344                  -11.24715       -96.05516
2.348                  -11.57272       -96.85215
2.352                   -11.9119       -97.66553
2.356                  -12.26572       -98.49721
2.36                   -12.63534       -99.34948
2.364                  -13.02208        -100.225
2.368                  -13.42743       -101.1271
2.372                  -13.85309       -102.0595
2.376                  -14.30102        -103.027
2.38                   -14.77346       -104.0354
2.384                  -15.27305       -105.0916
2.388                  -15.80284       -106.2046
2.392                  -16.36645       -107.3857
2.396                  -16.96819        -108.649
2.4                    -17.61322       -110.0134
2.404                  -18.30781       -111.5036