! TOUCHSTONE file generated by CST MICROWAVE STUDIO
! Date and time: Fri May  6 15:39:00 2022
! Project name: ant1_ceramic_sweep_fr4.cst
! Parameters = {e=0.035; h=1.6; i=0.8; l1=0.5; l2=20.96; ls=80; wl=1.7; ws=30.3}
! Header version: 2018
! Port assignment regex: !\s*Touchstone port\s*([0-9]+)\s*=\s*(CST MWS port|CST DS port)\s*([0-9]+|Zmin|Zmax)\s*\(\"(.*)\"\)(\s*mode\s*([0-9]+))?.*
! Touchstone port assignment:
! Touchstone port 1 = CST MWS port 1 ("")
# GHz S DB R 50
0                    -0.01386471              -0
0.004                -0.01385373     -0.04046793
0.008                -0.01382182      -0.0809443
0.012                -0.01376794      -0.1214375
0.016                -0.01369312       -0.161956
0.02                  -0.0135963       -0.202508
0.024                -0.01348007      -0.2431017
0.028                -0.01334285      -0.2837453
0.032                -0.01318566      -0.3244465
0.036                -0.01300795      -0.3652133
0.04                 -0.01281228      -0.4060532
0.044                -0.01259863      -0.4469735
0.048                -0.01236696      -0.4879814
0.052                -0.01211723      -0.5290836
0.056                -0.01185355      -0.5702871
0.06                 -0.01157276      -0.6115978
0.064                -0.01127845      -0.6530219
0.068                -0.01096955      -0.6945651
0.072                -0.01064909      -0.7362326
0.076                -0.01031653      -0.7780296
0.08                -0.009974397      -0.8199605
0.084               -0.009621081      -0.8620295
0.088               -0.009260677      -0.9042406
0.092                -0.00889209      -0.9465972
0.096               -0.008518375      -0.9891022
0.1                 -0.008137919       -1.031758
0.104               -0.007754812       -1.074567
0.108               -0.007369513       -1.117531
0.112               -0.006982484       -1.160652
0.116               -0.006595224       -1.203929
0.12                -0.006209229       -1.247364
0.124               -0.005823928       -1.290956
0.128               -0.005443932       -1.334705
0.132               -0.005067631        -1.37861
0.136               -0.004697569        -1.42267
0.14                -0.004333695       -1.466883
0.144               -0.003978037       -1.511246
0.148               -0.003632106       -1.555758
0.152               -0.003296895       -1.600415
0.156               -0.002971852       -1.645214
0.16                -0.002660048       -1.690151
0.164               -0.002360416       -1.735221
0.168               -0.002076038       -1.780421
0.172               -0.001806372       -1.825746
0.176               -0.001553465       -1.871191
0.18                -0.001316791       -1.916749
0.184               -0.001096851       -1.962416
0.188              -0.0008967489       -2.008185
0.192              -0.0007159582        -2.05405
0.196              -0.0005524157       -2.100005
0.2                -0.0004097457       -2.146043
0.204              -0.0002895165       -2.192157
0.208              -0.0001881132        -2.23834
0.212              -0.0001081515       -2.284585
0.216              -5.016595e-05       -2.330885
0.22               -1.418676e-05       -2.377233
0.224               2.651427e-07       -2.423619
0.228              -7.870581e-06       -2.470039
0.232              -3.760825e-05       -2.516484
0.236              -8.950256e-05       -2.562947
0.24               -0.0001625718       -2.609419
0.244              -0.0002578999       -2.655894
0.248              -0.0003734698       -2.702365
0.252              -0.0005114117       -2.748824
0.256              -0.0006697164       -2.795264
0.26               -0.0008489607       -2.841678
0.264               -0.001046624       -2.888059
0.268               -0.001264838       -2.934402
0.272               -0.001501087       -2.980699
0.276               -0.001753886       -3.026944
0.28                -0.002025373       -3.073132
0.284                -0.00231148       -3.119256
0.288               -0.002614867       -3.165313
0.292               -0.002931453       -3.211296
0.296                -0.00326287       -3.257201
0.3                 -0.003605035       -3.303025
0.304               -0.003961131       -3.348762
0.308               -0.004326036        -3.39441
0.312               -0.004702409       -3.439965
0.316               -0.005085121       -3.485425
0.32                -0.005475273       -3.530786
0.324               -0.005871875       -3.576049
0.328               -0.006272395        -3.62121
0.332               -0.006677389       -3.666269
0.336               -0.007084313       -3.711226
0.34                -0.007492676        -3.75608
0.344               -0.007899932       -3.800832
0.348                -0.00830713       -3.845482
0.352               -0.008711703       -3.890033
0.356               -0.009112115       -3.934485
0.36                -0.009506817       -3.978841
0.364               -0.009895811       -4.023103
0.368                 -0.0102765       -4.067275
0.372                 -0.0106499        -4.11136
0.376                -0.01101343       -4.155362
0.38                 -0.01136443       -4.199287
0.384                -0.01170498       -4.243136
0.388                -0.01203192       -4.286917
0.392                 -0.0123452       -4.330635
0.396                -0.01264216       -4.374298
0.4                  -0.01292535       -4.417909
0.404                -0.01319056       -4.461476
0.408                -0.01343769       -4.505006
0.412                 -0.0136672       -4.548507
0.416                -0.01387745       -4.591986
0.42                  -0.0140678       -4.635451
0.424                -0.01423765        -4.67891
0.428                 -0.0143874        -4.72237
0.432                 -0.0145159       -4.765843
0.436                -0.01462097       -4.809334
0.44                 -0.01470455       -4.852854
0.444                -0.01476753       -4.896412
0.448                 -0.0148067       -4.940015
0.452                -0.01482342       -4.983674
0.456                -0.01481709       -5.027398
0.46                 -0.01478853       -5.071196
0.464                -0.01473764       -5.115077
0.468                -0.01466372       -5.159051
0.472                -0.01456766       -5.203125
0.476                -0.01445031       -5.247311
0.48                 -0.01431152       -5.291616
0.484                -0.01415216        -5.33605
0.488                -0.01397104       -5.380619
0.492                -0.01377106       -5.425336
0.496                -0.01355208       -5.470205
0.5                  -0.01331394       -5.515235
0.504                -0.01305799       -5.560435
0.508                -0.01278564       -5.605813
0.512                -0.01249724       -5.651373
0.516                -0.01219312       -5.697125
0.52                 -0.01187625       -5.743074
0.524                -0.01154541       -5.789227
0.528                -0.01120252       -5.835589
0.532                  -0.010849       -5.882165
0.536                -0.01048623       -5.928962
0.54                 -0.01011509       -5.975983
0.544               -0.009736506       -6.023231
0.548                -0.00935187       -6.070712
0.552               -0.008962588       -6.118428
0.556               -0.008571159       -6.166383
0.56                -0.008176392       -6.214578
0.564               -0.007781843       -6.263014
0.568               -0.007388914       -6.311695
0.572               -0.006996492        -6.36062
0.576                -0.00660811       -6.409789
0.58                -0.006223676       -6.459203
0.584               -0.005845719        -6.50886
0.588               -0.005476215       -6.558762
0.592               -0.005115123       -6.608905
0.596               -0.004763429       -6.659286
0.6                 -0.004423175       -6.709904
0.604                -0.00409689       -6.760758
0.608               -0.003782488       -6.811841
0.612               -0.003485162       -6.863151
0.616               -0.003201765       -6.914684
0.62                -0.002936986       -6.966435
0.624               -0.002689794       -7.018399
0.628               -0.002461766       -7.070571
0.632               -0.002255031       -7.122944
0.636                -0.00206858       -7.175513
0.64                -0.001904532       -7.228271
0.644               -0.001762928       -7.281214
0.648               -0.001644418       -7.334331
0.652               -0.001550087       -7.387616
0.656               -0.001481023       -7.441064
0.66                -0.001437377       -7.494665
0.664               -0.001419219       -7.548412
0.668               -0.001426126       -7.602298
0.672               -0.001459308       -7.656313
0.676               -0.001520422       -7.710449
0.68                 -0.00160747       -7.764701
0.684               -0.001719605       -7.819057
0.688               -0.001861119        -7.87351
0.692               -0.002027461       -7.928052
0.696               -0.002220862       -7.982674
0.7                 -0.002440409       -8.037371
0.704               -0.002685266        -8.09213
0.708               -0.002955022       -8.146947
0.712               -0.003251948       -8.201813
0.716               -0.003571467       -8.256721
0.72                -0.003916408       -8.311662
0.724                -0.00428268       -8.366632
0.728               -0.004673102       -8.421621
0.732               -0.005083646       -8.476622
0.736               -0.005515412       -8.531635
0.74                -0.005967134       -8.586645
0.744               -0.006438306       -8.641653
0.748               -0.006925444       -8.696651
0.752               -0.007430192       -8.751637
0.756               -0.007951163       -8.806604
0.76                -0.008484784       -8.861549
0.764               -0.009032194       -8.916468
0.768               -0.009590908       -8.971358
0.772                -0.01015988       -9.026218
0.776                -0.01073812       -9.081046
0.78                 -0.01132368       -9.135839
0.784                -0.01191655       -9.190597
0.788                -0.01251308        -9.24532
0.792                -0.01311282       -9.300005
0.796                -0.01371617       -9.354659
0.8                  -0.01431802       -9.409277
0.804                -0.01491878       -9.463863
0.808                -0.01551889       -9.518422
0.812                -0.01611365       -9.572953
0.816                -0.01670294       -9.627461
0.82                 -0.01728561        -9.68195
0.824                -0.01786049       -9.736426
0.828                -0.01842587       -9.790892
0.832                -0.01898004       -9.845354
0.836                -0.01952278       -9.899821
0.84                 -0.02005185       -9.954296
0.844                -0.02056549       -10.00879
0.848                -0.02106343        -10.0633
0.852                -0.02154596       -10.11785
0.856                 -0.0220092       -10.17244
0.86                 -0.02245329       -10.22708
0.864                -0.02287804       -10.28177
0.868                -0.02328202       -10.33654
0.872                -0.02366445       -10.39139
0.876                -0.02402492       -10.44632
0.88                 -0.02436155       -10.50136
0.884                -0.02467556        -10.5565
0.888                -0.02496543       -10.61177
0.892                -0.02523088       -10.66718
0.896                -0.02547191       -10.72273
0.9                  -0.02568664       -10.77843
0.904                -0.02587719       -10.83431
0.908                -0.02604315       -10.89036
0.912                -0.02618406       -10.94662
0.916                -0.02629894       -11.00308
0.92                 -0.02638895       -11.05975
0.924                -0.02645618       -11.11666
0.928                -0.02649702       -11.17381
0.932                -0.02651629       -11.23121
0.936                -0.02651089       -11.28888
0.94                  -0.0264834       -11.34683
0.944                 -0.0264345       -11.40506
0.948                -0.02636462        -11.4636
0.952                -0.02627556       -11.52245
0.956                 -0.0261667       -11.58162
0.96                 -0.02604024       -11.64113
0.964                -0.02589677       -11.70098
0.968                 -0.0257379       -11.76118
0.972                -0.02556427       -11.82175
0.976                -0.02537907       -11.88268
0.98                 -0.02518183         -11.944
0.984                -0.02497327        -12.0057
0.988                -0.02475809       -12.06781
0.992                -0.02453395       -12.13031
0.996                -0.02430554       -12.19322
1                    -0.02407463       -12.25655
1.004                -0.02384038       -12.32029
1.008                 -0.0236051       -12.38447
1.012                -0.02337301       -12.44907
1.016                -0.02314344        -12.5141
1.02                 -0.02291963       -12.57958
1.024                -0.02270094       -12.64549
1.028                -0.02249272       -12.71184
1.032                -0.02229427       -12.77864
1.036                -0.02210799       -12.84588
1.04                 -0.02193632       -12.91356
1.044                 -0.0217801       -12.98168
1.048                -0.02164167       -13.05027
1.052                -0.02152297       -13.11925
1.056                -0.02142573        -13.1887
1.06                 -0.02134969       -13.25859
1.064                -0.02129928       -13.32888
1.068                -0.02127541       -13.39962
1.072                -0.02127892       -13.47076
1.076                -0.02131035       -13.54237
1.08                  -0.0213729       -13.61436
1.084                -0.02146844       -13.68673
1.088                -0.02159602       -13.75951
1.092                -0.02175844       -13.83273
1.096                -0.02195652       -13.90628
1.1                  -0.02219187       -13.98027
1.104                -0.02246466       -14.05458
1.108                -0.02277582       -14.12925
1.112                -0.02312583        -14.2043
1.116                -0.02351703       -14.27967
1.12                 -0.02394881       -14.35538
1.124                -0.02442212       -14.43144
1.128                 -0.0249375        -14.5078
1.132                -0.02549562       -14.58447
1.136                -0.02609466       -14.66144
1.14                 -0.02673819        -14.7387
1.144                -0.02742355       -14.81623
1.148                -0.02815144       -14.89404
1.152                -0.02892152       -14.97211
1.156                 -0.0297349       -15.05042
1.16                    -0.03059       -15.12898
1.164                -0.03148653       -15.20778
1.168                -0.03242347        -15.2868
1.172                -0.03340183       -15.36603
1.176                -0.03442006       -15.44547
1.18                  -0.0354756       -15.52511
1.184                -0.03657013       -15.60494
1.188                -0.03770161       -15.68496
1.192                -0.03886837       -15.76515
1.196                -0.04007003       -15.84552
1.2                  -0.04130492       -15.92605
1.204                 -0.0425714       -16.00675
1.208                -0.04386866        -16.0876
1.212                -0.04519548       -16.16861
1.216                -0.04655022       -16.24976
1.22                 -0.04793003       -16.33107
1.224                -0.04933488       -16.41252
1.228                -0.05076187        -16.4941
1.232                -0.05221012       -16.57584
1.236                -0.05367757       -16.65772
1.24                 -0.05516283       -16.73974
1.244                -0.05666327       -16.82191
1.248                -0.05817659       -16.90423
1.252                -0.05970254       -16.98669
1.256                -0.06123845       -17.06932
1.26                 -0.06278272       -17.15211
1.264                -0.06433266       -17.23506
1.268                -0.06588686       -17.31819
1.272                -0.06744434       -17.40149
1.276                -0.06900228       -17.48499
1.28                 -0.07055876       -17.56868
1.284                 -0.0721128       -17.65259
1.288                -0.07366253        -17.7367
1.292                -0.07520643       -17.82106
1.296                -0.07674239       -17.90565
1.3                  -0.07826894       -17.99049
1.304                -0.07978553       -18.07561
1.308                   -0.08129       -18.16101
1.312                -0.08278019        -18.2467
1.316                -0.08425655       -18.33272
1.32                 -0.08571831       -18.41906
1.324                -0.08716267       -18.50574
1.328                -0.08858898        -18.5928
1.332                -0.08999771       -18.68023
1.336                -0.09138767       -18.76807
1.34                 -0.09275848       -18.85633
1.344                -0.09410907       -18.94503
1.348                -0.09543969       -19.03419
1.352                -0.09674947       -19.12383
1.356                 -0.0980396       -19.21397
1.36                 -0.09930827       -19.30464
1.364                 -0.1005579       -19.39584
1.368                 -0.1017871       -19.48762
1.372                  -0.102998       -19.57997
1.376                 -0.1041895       -19.67294
1.38                  -0.1053638       -19.76653
1.384                 -0.1065202       -19.86078
1.388                 -0.1076614       -19.95569
1.392                 -0.1087885       -20.05131
1.396                 -0.1099015       -20.14763
1.4                   -0.1110027       -20.24469
1.404                 -0.1120938       -20.34251
1.408                 -0.1131771        -20.4411
1.412                 -0.1142527       -20.54049
1.416                 -0.1153247        -20.6407
1.42                  -0.1163944       -20.74175
1.424                 -0.1174623       -20.84365
1.428                 -0.1185339       -20.94642
1.432                 -0.1196099       -21.05008
1.436                 -0.1206924       -21.15466
1.44                   -0.121786       -21.26015
1.444                 -0.1228924       -21.36659
1.448                 -0.1240135       -21.47399
1.452                 -0.1251536       -21.58236
1.456                 -0.1263155       -21.69171
1.46                  -0.1275024       -21.80206
1.464                 -0.1287172       -21.91342
1.468                  -0.129963        -22.0258
1.472                 -0.1312438       -22.13922
1.476                 -0.1325612       -22.25367
1.48                  -0.1339214       -22.36918
1.484                 -0.1353259       -22.48575
1.488                 -0.1367782       -22.60339
1.492                 -0.1382823        -22.7221
1.496                 -0.1398409       -22.84189
1.5                   -0.1414592       -22.96276
1.504                 -0.1431388       -23.08472
1.508                 -0.1448835       -23.20777
1.512                 -0.1466979       -23.33192
1.516                 -0.1485835       -23.45716
1.52                  -0.1505442       -23.58349
1.524                 -0.1525845       -23.71092
1.528                 -0.1547073       -23.83944
1.532                 -0.1569147       -23.96905
1.536                 -0.1592102       -24.09976
1.54                  -0.1615975       -24.23155
1.544                 -0.1640791       -24.36442
1.548                 -0.1666582       -24.49837
1.552                 -0.1693374        -24.6334
1.556                 -0.1721187       -24.76949
1.56                   -0.175006       -24.90664
1.564                 -0.1780011       -25.04485
1.568                 -0.1811056        -25.1841
1.572                 -0.1843242        -25.3244
1.576                 -0.1876558       -25.46573
1.58                  -0.1911042       -25.60809
1.584                 -0.1946711       -25.75147
1.588                 -0.1983576       -25.89585
1.592                 -0.2021677       -26.04124
1.596                 -0.2060995       -26.18762
1.6                   -0.2101563       -26.33499
1.604                  -0.214339       -26.48333
1.608                 -0.2186485       -26.63264
1.612                 -0.2230856       -26.78292
1.616                 -0.2276519       -26.93415
1.62                  -0.2323461       -27.08632
1.624                 -0.2371707       -27.23944
1.628                 -0.2421261       -27.39349
1.632                 -0.2472107       -27.54847
1.636                 -0.2524261       -27.70437
1.64                  -0.2577719        -27.8612
1.644                 -0.2632472       -28.01894
1.648                 -0.2688532       -28.17759
1.652                 -0.2745885       -28.33715
1.656                 -0.2804541       -28.49762
1.66                  -0.2864468       -28.65901
1.664                 -0.2925681        -28.8213
1.668                 -0.2988174       -28.98451
1.672                 -0.3051912       -29.14864
1.676                 -0.3116913       -29.31368
1.68                  -0.3183164       -29.47965
1.684                  -0.325064       -29.64656
1.688                 -0.3319351       -29.81441
1.692                 -0.3389253       -29.98321
1.696                  -0.346038       -30.15297
1.7                   -0.3532678       -30.32371
1.704                 -0.3606159       -30.49544
1.708                 -0.3680816       -30.66817
1.712                 -0.3756614       -30.84193
1.716                  -0.383356       -31.01673
1.72                  -0.3911646       -31.19259
1.724                 -0.3990848       -31.36954
1.728                 -0.4071171        -31.5476
1.732                 -0.4152592       -31.72679
1.736                 -0.4235129       -31.90714
1.74                  -0.4318755       -32.08868
1.744                 -0.4403458       -32.27145
1.748                 -0.4489245       -32.45547
1.752                 -0.4576131       -32.64078
1.756                 -0.4664082       -32.82741
1.76                  -0.4753122       -33.01541
1.764                 -0.4843251       -33.20481
1.768                 -0.4934472       -33.39564
1.772                 -0.5026799       -33.58795
1.776                 -0.5120217        -33.7818
1.78                  -0.5214778       -33.97722
1.784                 -0.5310474       -34.17426
1.788                 -0.5407321       -34.37296
1.792                 -0.5505357       -34.57338
1.796                 -0.5604575       -34.77557
1.8                   -0.5705037       -34.97958
1.804                 -0.5806746       -35.18545
1.808                 -0.5909752       -35.39326
1.812                 -0.6014096       -35.60305
1.816                 -0.6119804       -35.81488
1.82                  -0.6226925       -36.02881
1.824                 -0.6335511       -36.24488
1.828                 -0.6445611       -36.46318
1.832                 -0.6557284       -36.68374
1.836                 -0.6670589       -36.90663
1.84                   -0.678558       -37.13192
1.844                  -0.690235       -37.35966
1.848                 -0.7020942       -37.58992
1.852                  -0.714145       -37.82275
1.856                 -0.7263965       -38.05823
1.86                  -0.7388546       -38.29639
1.864                 -0.7515305       -38.53733
1.868                 -0.7644329       -38.78109
1.872                 -0.7775718       -39.02773
1.876                 -0.7909563       -39.27732
1.88                  -0.8045998       -39.52991
1.884                 -0.8185118       -39.78557
1.888                 -0.8327034       -40.04435
1.892                 -0.8471891       -40.30632
1.896                 -0.8619776       -40.57152
1.9                   -0.8770866       -40.84003
1.904                 -0.8925265        -41.1119
1.908                 -0.9083122       -41.38717
1.912                 -0.9244585       -41.66591
1.916                 -0.9409792       -41.94817
1.92                  -0.9578893       -42.23399
1.924                 -0.9752071       -42.52344
1.928                 -0.9929458       -42.81655
1.932                  -1.011123       -43.11338
1.936                  -1.029756       -43.41397
1.94                    -1.04886       -43.71837
1.944                  -1.068456       -44.02662
1.948                  -1.088561       -44.33877
1.952                  -1.109193       -44.65484
1.956                  -1.130371       -44.97488
1.96                   -1.152116       -45.29894
1.964                  -1.174445       -45.62702
1.968                  -1.197381        -45.9592
1.972                  -1.220941       -46.29547
1.976                   -1.24515       -46.63588
1.98                   -1.270027       -46.98045
1.984                  -1.295594       -47.32922
1.988                  -1.321873       -47.68219
1.992                  -1.348886       -48.03939
1.996                  -1.376657       -48.40086
2                      -1.405209        -48.7666
2.004                  -1.434562       -49.13662
2.008                  -1.464746       -49.51096
2.012                  -1.495781       -49.88961
2.016                  -1.527692       -50.27259
2.02                   -1.560505        -50.6599
2.024                  -1.594245       -51.05157
2.028                  -1.628938       -51.44759
2.032                   -1.66461       -51.84797
2.036                  -1.701287        -52.2527
2.04                   -1.738997        -52.6618
2.044                  -1.777766       -53.07527
2.048                  -1.817623       -53.49309
2.052                  -1.858596       -53.91527
2.056                  -1.900712       -54.34178
2.06                   -1.944002       -54.77266
2.064                  -1.988495       -55.20787
2.068                  -2.034222       -55.64742
2.072                  -2.081212       -56.09127
2.076                  -2.129497       -56.53944
2.08                   -2.179107        -56.9919
2.084                  -2.230078       -57.44864
2.088                  -2.282439       -57.90965
2.092                  -2.336224       -58.37493
2.096                  -2.391468       -58.84442
2.1                    -2.448207       -59.31815
2.104                  -2.506475       -59.79607
2.108                  -2.566306       -60.27818
2.112                  -2.627741       -60.76446
2.116                  -2.690817       -61.25489
2.12                   -2.755572       -61.74943
2.124                  -2.822044       -62.24809
2.128                  -2.890276       -62.75084
2.132                  -2.960308       -63.25764
2.136                  -3.032184       -63.76851
2.14                   -3.105947       -64.28339
2.144                  -3.181643       -64.80228
2.148                  -3.259316       -65.32515
2.152                  -3.339018       -65.85199
2.156                  -3.420794       -66.38278
2.16                   -3.504696        -66.9175
2.164                  -3.590775       -67.45613
2.168                  -3.679087       -67.99865
2.172                  -3.769687       -68.54506
2.176                  -3.862633       -69.09532
2.18                   -3.957985       -69.64944
2.184                  -4.055802        -70.2074
2.188                  -4.156152       -70.76918
2.192                  -4.259099       -71.33478
2.196                  -4.364715        -71.9042
2.2                     -4.47307       -72.47744
2.204                   -4.58424       -73.05448
2.208                  -4.698302       -73.63535
2.212                  -4.815339       -74.22003
2.216                  -4.935437       -74.80853
2.22                   -5.058684       -75.40087
2.224                  -5.185173       -75.99708
2.228                  -5.315004       -76.59717
2.232                  -5.448279       -77.20115
2.236                  -5.585107       -77.80909
2.24                   -5.725601       -78.42099
2.244                   -5.86988       -79.03694
2.248                  -6.018072       -79.65695
2.252                   -6.17031       -80.28112
2.256                  -6.326736       -80.90951
2.26                   -6.487497       -81.54221
2.264                  -6.652754        -82.1793
2.268                  -6.822673       -82.82089
2.272                  -6.997436       -83.46713
2.276                  -7.177231       -84.11813
2.28                   -7.362263       -84.77406
2.284                  -7.552748       -85.43512
2.288                  -7.748919       -86.10148
2.292                  -7.951025       -86.77338
2.296                  -8.159335       -87.45109
2.3                    -8.374135       -88.13488
2.304                  -8.595737       -88.82512
2.308                  -8.824478       -89.52215
2.312                  -9.060719        -90.2264
2.316                  -9.304856       -90.93836
2.32                   -9.557318       -91.65858
2.324                  -9.818575       -92.38766
2.328                  -10.08914       -93.12633
2.332                  -10.36957       -93.87541
2.336                  -10.66048       -94.63585
2.34                   -10.96256        -95.4087
2.344                  -11.27657       -96.19522
2.348                  -11.60333       -96.99687
2.352                  -11.94379       -97.81534
2.356                  -12.29899       -98.65263
2.36                    -12.6701       -99.51107
2.364                  -13.05846       -100.3935
2.368                  -13.46558       -101.3031
2.372                  -13.89317       -102.2441
2.376                  -14.34322       -103.2212
2.38                   -14.81801       -104.2404
2.384                  -15.32018        -105.309
2.388                  -15.85285       -106.4363
2.392                  -16.41968       -107.6339
2.396                  -17.02504       -108.9168
2.4                    -17.67416       -110.3043
2.404                   -18.3734       -111.8223