! TOUCHSTONE file generated by CST MICROWAVE STUDIO
! Date and time: Fri May  6 15:38:54 2022
! Project name: ant1_ceramic_sweep_fr4.cst
! Parameters = {e=0.035; h=1.6; i=0.8; l1=0.45; l2=20.96; ls=80; wl=1.7; ws=30}
! Header version: 2018
! Port assignment regex: !\s*Touchstone port\s*([0-9]+)\s*=\s*(CST MWS port|CST DS port)\s*([0-9]+|Zmin|Zmax)\s*\(\"(.*)\"\)(\s*mode\s*([0-9]+))?.*
! Touchstone port assignment:
! Touchstone port 1 = CST MWS port 1 ("")
# GHz S DB R 50
0                   -0.001494784              -0
0.004               -0.001493429     -0.04250922
0.008               -0.001489882     -0.08502015
0.012               -0.001483105      -0.1275344
0.016               -0.001474133      -0.1700538
0.02                 -0.00146348      -0.2125799
0.024                -0.00144959      -0.2551144
0.028               -0.001433494      -0.2976589
0.032               -0.001415188      -0.3402149
0.036               -0.001394665      -0.3827841
0.04                -0.001371403       -0.425368
0.044               -0.001347982       -0.467968
0.048                -0.00132129      -0.5105855
0.052               -0.001292871      -0.5532221
0.056               -0.001263234      -0.5958788
0.06                -0.001232889      -0.6385571
0.064               -0.001199236      -0.6812581
0.068               -0.001165892      -0.7239831
0.072               -0.001131291       -0.766733
0.076               -0.001095941      -0.8095088
0.08                -0.001059831      -0.8523114
0.084               -0.001023468      -0.8951418
0.088              -0.0009858053      -0.9380007
0.092              -0.0009499374      -0.9808888
0.096              -0.0009132638       -1.023807
0.1                 -0.000876809       -1.066755
0.104              -0.0008415967       -1.109734
0.108              -0.0008060624       -1.152744
0.112              -0.0007722643       -1.195786
0.116              -0.0007386392       -1.238859
0.12               -0.0007072463       -1.281965
0.124              -0.0006760035       -1.325102
0.128              -0.0006474899       -1.368271
0.132              -0.0006211765       -1.411471
0.136              -0.0005944645       -1.454703
0.14               -0.0005725216       -1.497967
0.144              -0.0005517154       -1.541262
0.148              -0.0005335896       -1.584587
0.152              -0.0005186531       -1.627942
0.156               -0.000504829       -1.671327
0.16               -0.0004957322       -1.714741
0.164              -0.0004877336       -1.758183
0.168              -0.0004839319       -1.801653
0.172              -0.0004843205        -1.84515
0.176              -0.0004852737       -1.888673
0.18               -0.0004919625       -1.932222
0.184              -0.0005002386       -1.975795
0.188              -0.0005137257       -2.019392
0.192              -0.0005293122       -2.063012
0.196              -0.0005490694       -2.106654
0.2                -0.0005719573       -2.150318
0.204              -0.0005979774          -2.194
0.208              -0.0006281588       -2.237703
0.212              -0.0006609543       -2.281424
0.216              -0.0006973965       -2.325162
0.22               -0.0007380006       -2.368917
0.224              -0.0007801771       -2.412688
0.228              -0.0008270383       -2.456473
0.232              -0.0008749596       -2.500272
0.236              -0.0009270442       -2.544085
0.24               -0.0009822604        -2.58791
0.244               -0.001039055       -2.631748
0.248               -0.001098982       -2.675596
0.252               -0.001160489       -2.719455
0.256               -0.001224607       -2.763325
0.26                -0.001290826       -2.807205
0.264               -0.001358622       -2.851094
0.268               -0.001427479       -2.894992
0.272               -0.001497911         -2.9389
0.276               -0.001569401       -2.982816
0.28                 -0.00164194       -3.026742
0.284               -0.001714497       -3.070677
0.288               -0.001789129       -3.114621
0.292               -0.001862213       -3.158575
0.296               -0.001934775       -3.202538
0.3                 -0.002007847       -3.246512
0.304               -0.002079343       -3.290497
0.308               -0.002151325       -3.334494
0.312               -0.002221713       -3.378504
0.316               -0.002289977       -3.422526
0.32                 -0.00235765       -3.466564
0.324               -0.002422131       -3.510617
0.328               -0.002485478       -3.554687
0.332               -0.002545595       -3.598774
0.336               -0.002603488       -3.642883
0.34                -0.002658122       -3.687012
0.344               -0.002709964       -3.731164
0.348               -0.002757977        -3.77534
0.352               -0.002803669       -3.819543
0.356               -0.002844424       -3.863775
0.36                -0.002881769       -3.908037
0.364               -0.002914625       -3.952332
0.368               -0.002942455       -3.996661
0.372               -0.002966759       -4.041028
0.376               -0.002986469       -4.085434
0.38                -0.003001537       -4.129883
0.384               -0.003011419       -4.174375
0.388               -0.003016055       -4.218915
0.392               -0.003016429       -4.263504
0.396               -0.003012518       -4.308145
0.4                 -0.003002179       -4.352841
0.404               -0.002986907       -4.397596
0.408               -0.002966676        -4.44241
0.412               -0.002941926       -4.487287
0.416               -0.002911059        -4.53223
0.42                -0.002876603       -4.577242
0.424               -0.002835905       -4.622326
0.428               -0.002790982       -4.667484
0.432               -0.002740734       -4.712719
0.436               -0.002686665       -4.758033
0.44                -0.002627659        -4.80343
0.444               -0.002564688       -4.848913
0.448               -0.002498217       -4.894484
0.452               -0.002427141       -4.940144
0.456               -0.002352429       -4.985898
0.46                -0.002274019       -5.031746
0.464               -0.002192875       -5.077693
0.468                -0.00210842       -5.123739
0.472               -0.002021611       -5.169888
0.476               -0.001932396       -5.216141
0.48                -0.001842261         -5.2625
0.484               -0.001749578       -5.308968
0.488               -0.001654816       -5.355546
0.492               -0.001559978       -5.402235
0.496               -0.001463962       -5.449038
0.5                 -0.001368252       -5.495956
0.504               -0.001272805        -5.54299
0.508               -0.001177559        -5.59014
0.512               -0.001083476        -5.63741
0.516              -0.0009905089         -5.6848
0.52               -0.0008986271       -5.732308
0.524              -0.0008103347       -5.779938
0.528              -0.0007230034       -5.827689
0.532              -0.0006412489       -5.875563
0.536              -0.0005598478       -5.923557
0.54               -0.0004839371       -5.971673
0.544              -0.0004113762       -6.019912
0.548              -0.0003426805       -6.068271
0.552              -0.0002809063       -6.116752
0.556              -0.0002244549       -6.165355
0.56               -0.0001727789       -6.214078
0.564              -0.0001263955       -6.262918
0.568               -8.73101e-05       -6.311878
0.572              -5.448991e-05       -6.360955
0.576              -3.099791e-05       -6.410149
0.58               -1.216533e-05       -6.459458
0.584              -2.650235e-06        -6.50888
0.588              -3.507024e-07       -6.558414
0.592              -6.802707e-06       -6.608059
0.596              -2.150068e-05       -6.657813
0.6                -4.338874e-05       -6.707673
0.604              -7.712803e-05       -6.757639
0.608              -0.0001185793       -6.807708
0.612              -0.0001692906       -6.857878
0.616              -0.0002292607       -6.908147
0.62               -0.0002984974       -6.958513
0.624              -0.0003775234       -7.008974
0.628               -0.000465851       -7.059526
0.632              -0.0005650093        -7.11017
0.636              -0.0006724337       -7.160902
0.64               -0.0007902091        -7.21172
0.644               -0.000918367        -7.26262
0.648                -0.00105429       -7.313603
0.652               -0.001200613       -7.364665
0.656               -0.001355798       -7.415803
0.66                -0.001520345       -7.467017
0.664               -0.001694325       -7.518302
0.668               -0.001876153       -7.569659
0.672               -0.002067907       -7.621086
0.676                -0.00226706       -7.672578
0.68                -0.002474084       -7.724136
0.684               -0.002688508       -7.775757
0.688                -0.00291084       -7.827441
0.692               -0.003140082       -7.879184
0.696               -0.003377218       -7.930989
0.7                 -0.003618652        -7.98285
0.704                -0.00386698       -8.034769
0.708               -0.004120147       -8.086743
0.712               -0.004378076       -8.138774
0.716                -0.00464133        -8.19086
0.72                -0.004908314       -8.243001
0.724               -0.005178493       -8.295196
0.728               -0.005451845       -8.347446
0.732               -0.005727304        -8.39975
0.736               -0.006004773       -8.452113
0.74                -0.006284324        -8.50453
0.744               -0.006564815       -8.557004
0.748               -0.006844115       -8.609535
0.752               -0.007124781       -8.662127
0.756               -0.007404642        -8.71478
0.76                -0.007682629       -8.767495
0.764               -0.007958638       -8.820274
0.768               -0.008233093       -8.873122
0.772                 -0.0085039       -8.926037
0.776               -0.008770867       -8.979025
0.78                -0.009034457       -9.032089
0.784               -0.009294044        -9.08523
0.788               -0.009547426       -9.138451
0.792               -0.009796041       -9.191758
0.796                -0.01003869       -9.245154
0.8                   -0.0102737       -9.298641
0.804                -0.01050406       -9.352225
0.808                -0.01072643       -9.405911
0.812                -0.01094076         -9.4597
0.816                -0.01114781       -9.513602
0.82                 -0.01134595       -9.567615
0.824                -0.01153645        -9.62175
0.828                -0.01171767       -9.676009
0.832                -0.01188981         -9.7304
0.836                -0.01205331       -9.784924
0.84                 -0.01220634       -9.839591
0.844                -0.01235079       -9.894404
0.848                 -0.0124859        -9.94937
0.852                -0.01261045       -10.00449
0.856                 -0.0127257       -10.05978
0.86                 -0.01283098       -10.11524
0.864                -0.01292698       -10.17087
0.868                -0.01301306       -10.22669
0.872                -0.01308992        -10.2827
0.876                -0.01315739        -10.3389
0.88                  -0.0132157       -10.39529
0.884                -0.01326562        -10.4519
0.888                -0.01330642       -10.50872
0.892                -0.01333934       -10.56576
0.896                -0.01336467       -10.62302
0.9                  -0.01338212       -10.68051
0.904                -0.01339254       -10.73823
0.908                -0.01339715        -10.7962
0.912                -0.01339469       -10.85442
0.916                -0.01338805       -10.91289
0.92                 -0.01337588       -10.97161
0.924                -0.01335999        -11.0306
0.928                -0.01333917       -11.08985
0.932                -0.01331672       -11.14938
0.936                -0.01329084       -11.20918
0.94                 -0.01326446       -11.26927
0.944                -0.01323731       -11.32964
0.948                -0.01320967        -11.3903
0.952                -0.01318336       -11.45125
0.956                -0.01315824        -11.5125
0.96                 -0.01313608       -11.57404
0.964                -0.01311826       -11.63589
0.968                -0.01310352       -11.69804
0.972                 -0.0130937       -11.76051
0.976                -0.01309033       -11.82328
0.98                 -0.01309409       -11.88636
0.984                -0.01310593       -11.94975
0.988                -0.01312564       -12.01346
0.992                -0.01315671       -12.07748
0.996                -0.01319642       -12.14182
1                    -0.01324931       -12.20647
1.004                -0.01331412       -12.27144
1.008                -0.01339135       -12.33673
1.012                -0.01348342       -12.40233
1.016                -0.01359124       -12.46825
1.02                 -0.01371481       -12.53448
1.024                -0.01385455       -12.60102
1.028                -0.01401233       -12.66787
1.032                -0.01418723       -12.73503
1.036                -0.01438272        -12.8025
1.04                 -0.01459719       -12.87028
1.044                -0.01483271       -12.93836
1.048                -0.01508839       -13.00675
1.052                -0.01536653        -13.0754
1.056                -0.01566659       -13.14439
1.06                 -0.01599079       -13.21365
1.064                -0.01633709       -13.28321
1.068                -0.01670735       -13.35304
1.072                -0.01710149       -13.42314
1.076                -0.01752086       -13.49352
1.08                 -0.01796545       -13.56417
1.084                -0.01843514        -13.6351
1.088                -0.01892981       -13.70629
1.092                 -0.0194508       -13.77774
1.096                -0.01999759       -13.84946
1.1                  -0.02057002       -13.92142
1.104                -0.02116754       -13.99363
1.108                -0.02179154       -14.06611
1.112                -0.02244234       -14.13881
1.116                -0.02311687        -14.2117
1.12                 -0.02381761       -14.28489
1.124                 -0.0245438       -14.35828
1.128                -0.02529501       -14.43188
1.132                -0.02607055       -14.50571
1.136                -0.02686924       -14.57976
1.14                 -0.02769264       -14.65403
1.144                -0.02853833       -14.72851
1.148                -0.02940726        -14.8032
1.152                -0.03029796       -14.87809
1.156                -0.03121024       -14.95319
1.16                 -0.03214319       -15.02849
1.164                -0.03309613         -15.104
1.168                -0.03406758        -15.1797
1.172                -0.03505851        -15.2556
1.176                -0.03606659       -15.33169
1.18                 -0.03709079       -15.40799
1.184                -0.03813049       -15.48448
1.188                -0.03918609       -15.56117
1.192                -0.04025476       -15.63806
1.196                -0.04133682       -15.71516
1.2                  -0.04243116       -15.79245
1.204                -0.04353587       -15.86995
1.208                -0.04465028       -15.94766
1.212                -0.04577361       -16.02557
1.216                -0.04690546        -16.1037
1.22                 -0.04804348       -16.18206
1.224                -0.04918684       -16.26063
1.228                -0.05033567       -16.33943
1.232                -0.05148806       -16.41847
1.236                -0.05264299       -16.49774
1.24                 -0.05379945       -16.57727
1.244                -0.05495707       -16.65704
1.248                -0.05611432       -16.73708
1.252                -0.05727008       -16.81739
1.256                 -0.0584249       -16.89797
1.26                 -0.05957476       -16.97885
1.264                -0.06072314       -17.06002
1.268                 -0.0618665       -17.14149
1.272                -0.06300428       -17.22328
1.276                 -0.0641358        -17.3054
1.28                  -0.0652613       -17.38785
1.284                -0.06638003       -17.47066
1.288                 -0.0674907       -17.55383
1.292                 -0.0685941       -17.63737
1.296                -0.06968835        -17.7213
1.3                  -0.07077456       -17.80563
1.304                -0.07185148       -17.89037
1.308                -0.07291925       -17.97554
1.312                -0.07397796       -18.06115
1.316                -0.07502805       -18.14722
1.32                  -0.0760688       -18.23375
1.324                -0.07709983       -18.32077
1.328                -0.07812295       -18.40828
1.332                -0.07913732       -18.49631
1.336                -0.08014407       -18.58487
1.34                 -0.08114406       -18.67397
1.344                -0.08213591       -18.76363
1.348                -0.08312251       -18.85387
1.352                 -0.0841036       -18.94469
1.356                -0.08507999       -19.03611
1.36                 -0.08605261       -19.12816
1.364                -0.08702207       -19.22083
1.368                -0.08799092       -19.31416
1.372                -0.08896056       -19.40815
1.376                -0.08992949       -19.50282
1.38                 -0.09090087       -19.59818
1.384                -0.09187751       -19.69425
1.388                -0.09285912       -19.79104
1.392                -0.09384757       -19.88856
1.396                -0.09484458       -19.98683
1.4                  -0.09585199       -20.08586
1.404                -0.09687275       -20.18567
1.408                -0.09790816       -20.28626
1.412                -0.09895831       -20.38764
1.416                 -0.1000284       -20.48984
1.42                  -0.1011177       -20.59286
1.424                 -0.1022307       -20.69671
1.428                  -0.103368        -20.8014
1.432                 -0.1045324       -20.90694
1.436                 -0.1057264       -21.01334
1.44                  -0.1069527       -21.12061
1.444                 -0.1082125       -21.22876
1.448                 -0.1095093       -21.33779
1.452                 -0.1108446       -21.44771
1.456                 -0.1122216       -21.55853
1.46                  -0.1136421       -21.67026
1.464                 -0.1151106       -21.78289
1.468                 -0.1166271       -21.89644
1.472                  -0.118195       -22.01091
1.476                  -0.119817        -22.1263
1.48                  -0.1214949       -22.24262
1.484                 -0.1232326       -22.35987
1.488                 -0.1250314       -22.47804
1.492                 -0.1268924       -22.59715
1.496                 -0.1288214        -22.7172
1.5                   -0.1308175       -22.83817
1.504                 -0.1328853       -22.96008
1.508                 -0.1350267       -23.08293
1.512                 -0.1372427       -23.20671
1.516                 -0.1395365       -23.33142
1.52                  -0.1419099       -23.45706
1.524                 -0.1443648       -23.58363
1.528                 -0.1469034       -23.71113
1.532                  -0.149528       -23.83954
1.536                 -0.1522403       -23.96888
1.54                  -0.1550424       -24.09914
1.544                 -0.1579346       -24.23031
1.548                 -0.1609195       -24.36239
1.552                 -0.1639986       -24.49538
1.556                 -0.1671744       -24.62927
1.56                  -0.1704467       -24.76406
1.564                 -0.1738166       -24.89974
1.568                 -0.1772874       -25.03631
1.572                  -0.180858       -25.17377
1.576                 -0.1845298       -25.31211
1.58                  -0.1883052       -25.45134
1.584                 -0.1921826       -25.59143
1.588                 -0.1961647       -25.73239
1.592                 -0.2002517       -25.87423
1.596                 -0.2044437       -26.01693
1.6                   -0.2087412       -26.16049
1.604                 -0.2131452       -26.30491
1.608                  -0.217655       -26.45019
1.612                 -0.2222711       -26.59632
1.616                 -0.2269921       -26.74332
1.62                  -0.2318225       -26.89117
1.624                 -0.2367565       -27.03987
1.628                 -0.2417981       -27.18944
1.632                 -0.2469452       -27.33986
1.636                 -0.2521962       -27.49114
1.64                  -0.2575537       -27.64329
1.644                 -0.2630155       -27.79631
1.648                 -0.2685812        -27.9502
1.652                 -0.2742503       -28.10497
1.656                 -0.2800227       -28.26063
1.66                  -0.2858969       -28.41719
1.664                 -0.2918736       -28.57465
1.668                 -0.2979501       -28.73302
1.672                 -0.3041271       -28.89232
1.676                 -0.3104028       -29.05256
1.68                  -0.3167782       -29.21375
1.684                 -0.3232514       -29.37591
1.688                 -0.3298211       -29.53905
1.692                  -0.336488       -29.70319
1.696                 -0.3432498       -29.86835
1.7                   -0.3501069       -30.03454
1.704                 -0.3570597        -30.2018
1.708                 -0.3641064       -30.37013
1.712                 -0.3712465       -30.53958
1.716                 -0.3784805       -30.71015
1.72                  -0.3858077       -30.88188
1.724                 -0.3932273       -31.05479
1.728                 -0.4007407       -31.22892
1.732                  -0.408347       -31.40429
1.736                 -0.4160481       -31.58094
1.74                  -0.4238411        -31.7589
1.744                 -0.4317289        -31.9382
1.748                 -0.4397119       -32.11889
1.752                 -0.4477905       -32.30099
1.756                 -0.4559672       -32.48455
1.76                  -0.4642411       -32.66959
1.764                 -0.4726156       -32.85618
1.768                 -0.4810898       -33.04434
1.772                 -0.4896696       -33.23412
1.776                 -0.4983543       -33.42558
1.78                  -0.5071486       -33.61873
1.784                 -0.5160523       -33.81365
1.788                  -0.525069       -34.01037
1.792                 -0.5342046       -34.20894
1.796                  -0.543461       -34.40941
1.8                   -0.5528412       -34.61183
1.804                 -0.5623498       -34.81626
1.808                 -0.5719925       -35.02273
1.812                 -0.5817726       -35.23131
1.816                 -0.5916965       -35.44205
1.82                  -0.6017678       -35.65499
1.824                 -0.6119937       -35.87019
1.828                 -0.6223815       -36.08772
1.832                 -0.6329347       -36.30761
1.836                 -0.6436632       -36.52993
1.84                  -0.6545717       -36.75473
1.844                 -0.6656693       -36.98206
1.848                 -0.6769632       -37.21197
1.852                 -0.6884632       -37.44454
1.856                 -0.7001757        -37.6798
1.86                  -0.7121114        -37.9178
1.864                 -0.7242802       -38.15862
1.868                 -0.7366905       -38.40229
1.872                 -0.7493532       -38.64888
1.876                 -0.7622794       -38.89843
1.88                  -0.7754788       -39.15098
1.884                  -0.788964       -39.40662
1.888                 -0.8027471       -39.66537
1.892                 -0.8168377       -39.92729
1.896                 -0.8312506       -40.19242
1.9                   -0.8459993       -40.46082
1.904                 -0.8610952       -40.73254
1.908                  -0.876554       -41.00761
1.912                 -0.8923875       -41.28609
1.916                 -0.9086105       -41.56802
1.92                  -0.9252388       -41.85344
1.924                 -0.9422882        -42.1424
1.928                  -0.959772       -42.43493
1.932                 -0.9777082       -42.73107
1.936                 -0.9961109       -43.03087
1.94                   -1.014998       -43.33436
1.944                  -1.034387       -43.64158
1.948                  -1.054293       -43.95255
1.952                  -1.074737       -44.26732
1.956                  -1.095733       -44.58591
1.96                   -1.117304       -44.90835
1.964                  -1.139464       -45.23468
1.968                  -1.162234       -45.56491
1.972                  -1.185634       -45.89908
1.976                  -1.209682        -46.2372
1.98                   -1.234401        -46.5793
1.984                  -1.259806        -46.9254
1.988                  -1.285923       -47.27552
1.992                  -1.312771       -47.62968
1.996                  -1.340372       -47.98789
2                      -1.368745       -48.35016
2.004                  -1.397916       -48.71652
2.008                  -1.427903       -49.08696
2.012                  -1.458731       -49.46151
2.016                  -1.490425       -49.84017
2.02                   -1.523006       -50.22295
2.024                  -1.556497       -50.60984
2.028                  -1.590924       -51.00087
2.032                   -1.62631       -51.39602
2.036                  -1.662681        -51.7953
2.04                   -1.700061       -52.19871
2.044                  -1.738477       -52.60626
2.048                  -1.777954       -53.01793
2.052                  -1.818519       -53.43372
2.056                  -1.860198       -53.85363
2.06                    -1.90302       -54.27766
2.064                  -1.947011       -54.70579
2.068                  -1.992199       -55.13802
2.072                  -2.038615       -55.57434
2.076                  -2.086286       -56.01474
2.08                   -2.135244        -56.4592
2.084                  -2.185518       -56.90772
2.088                  -2.237139       -57.36029
2.092                  -2.290138       -57.81689
2.096                  -2.344548        -58.2775
2.1                    -2.400401       -58.74212
2.104                  -2.457732       -59.21072
2.108                  -2.516573       -59.68329
2.112                   -2.57696       -60.15981
2.116                  -2.638929       -60.64026
2.12                   -2.702518       -61.12465
2.124                  -2.767763       -61.61293
2.128                  -2.834702       -62.10509
2.132                  -2.903376       -62.60112
2.136                  -2.973824       -63.10101
2.14                   -3.046087       -63.60472
2.144                  -3.120209       -64.11224
2.148                  -3.196235       -64.62357
2.152                  -3.274208       -65.13868
2.156                  -3.354176       -65.65754
2.16                   -3.436186       -66.18014
2.164                  -3.520289       -66.70649
2.168                  -3.606535       -67.23656
2.172                  -3.694977       -67.77032
2.176                  -3.785669       -68.30776
2.18                    -3.87867       -68.84889
2.184                  -3.974036       -69.39368
2.188                   -4.07183       -69.94213
2.192                  -4.172113       -70.49423
2.196                  -4.274953       -71.04997
2.2                    -4.380416       -71.60935
2.204                  -4.488575       -72.17238
2.208                  -4.599502       -72.73904
2.212                  -4.713278       -73.30936
2.216                  -4.829978       -73.88331
2.22                   -4.949692       -74.46093
2.224                  -5.072503       -75.04222
2.228                  -5.198507        -75.6272
2.232                  -5.327799       -76.21589
2.236                  -5.460483       -76.80833
2.24                   -5.596662       -77.40452
2.244                   -5.73645       -78.00454
2.248                  -5.879968       -78.60841
2.252                  -6.027338       -79.21619
2.256                  -6.178693       -79.82793
2.26                   -6.334172       -80.44371
2.264                  -6.493923       -81.06359
2.268                  -6.658102       -81.68769
2.272                  -6.826875       -82.31608
2.276                   -7.00042       -82.94891
2.28                   -7.178925       -83.58627
2.284                   -7.36259       -84.22832
2.288                   -7.55163       -84.87525
2.292                  -7.746272       -85.52721
2.296                  -7.946766       -86.18444
2.3                    -8.153374       -86.84716
2.304                   -8.36638       -87.51565
2.308                   -8.58609       -88.19021
2.312                  -8.812836       -88.87117
2.316                  -9.046976       -89.55893
2.32                   -9.288898       -90.25391
2.324                  -9.539027       -90.95664
2.328                   -9.79782       -91.66768
2.332                  -10.06578       -92.38766
2.336                  -10.34347       -93.11734
2.34                   -10.63148       -93.85757
2.344                   -10.9305       -94.60933
2.348                  -11.24126       -95.37377
2.352                  -11.56457       -96.15216
2.356                  -11.90137       -96.94608
2.36                   -12.25268       -97.75731
2.364                  -12.61965         -98.588
2.368                  -13.00358       -99.44062
2.372                  -13.40595       -100.3182
2.376                  -13.82845       -101.2243
2.38                   -14.27301       -102.1634
2.384                  -14.74186       -103.1407
2.388                   -15.2376       -104.1629
2.392                  -15.76328       -105.2381
2.396                  -16.32247       -106.3768
2.4                    -16.91945       -107.5923
2.404                  -17.55934       -108.9018