! TOUCHSTONE file generated by CST MICROWAVE STUDIO
! Date and time: Fri May  6 15:38:56 2022
! Project name: ant1_ceramic_sweep_fr4.cst
! Parameters = {e=0.035; h=1.6; i=0.8; l1=0.5; l2=21.1696; ls=80; wl=1.7; ws=30}
! Header version: 2018
! Port assignment regex: !\s*Touchstone port\s*([0-9]+)\s*=\s*(CST MWS port|CST DS port)\s*([0-9]+|Zmin|Zmax)\s*\(\"(.*)\"\)(\s*mode\s*([0-9]+))?.*
! Touchstone port assignment:
! Touchstone port 1 = CST MWS port 1 ("")
# GHz S DB R 50
0                    -0.01391605              -0
0.004                -0.01390504     -0.04068866
0.008                -0.01387202     -0.08138601
0.012                -0.01381802      -0.1221007
0.016                -0.01374148      -0.1628414
0.02                 -0.01364237      -0.2036166
0.024                -0.01352381      -0.2444348
0.028                -0.01338368      -0.2853043
0.032                -0.01322198      -0.3262331
0.036                -0.01304177      -0.3672294
0.04                 -0.01284201      -0.4083009
0.044                -0.01262369      -0.4494551
0.048                -0.01238781      -0.4906995
0.052                 -0.0121333      -0.5320409
0.056                -0.01186426      -0.5734863
0.06                 -0.01157909      -0.6150421
0.064                -0.01127828      -0.6567144
0.068                -0.01096435      -0.6985087
0.072                -0.01063726      -0.7404311
0.076                -0.01029852      -0.7824861
0.08                -0.009950134      -0.8246787
0.084                -0.00959102       -0.867013
0.088               -0.009224748       -0.909493
0.092               -0.008850222       -0.952122
0.096               -0.008470494      -0.9949032
0.1                 -0.008084989       -1.037839
0.104               -0.007696237       -1.080931
0.108               -0.007305734       -1.124182
0.112               -0.006913423       -1.167593
0.116               -0.006521835       -1.211164
0.12                -0.006129879       -1.254896
0.124               -0.005742161       -1.298788
0.128               -0.005358627        -1.34284
0.132               -0.004979222       -1.387052
0.136               -0.004605452        -1.43142
0.14                -0.004240376       -1.475945
0.144               -0.003882394       -1.520621
0.148               -0.003535087       -1.565449
0.152                -0.00319945       -1.610424
0.156               -0.002875448       -1.655542
0.16                -0.002563563       -1.700799
0.164               -0.002265318       -1.746192
0.168                -0.00198276       -1.791715
0.172               -0.001715864       -1.837363
0.176               -0.001465648       -1.883131
0.18                -0.001232615       -1.929013
0.184               -0.001018308       -1.975003
0.188              -0.0008216864       -2.021095
0.192              -0.0006458539       -2.067283
0.196              -0.0004903002       -2.113558
0.2                -0.0003555467       -2.159916
0.204              -0.0002421278       -2.206348
0.208              -0.0001495397       -2.252848
0.212              -7.780597e-05       -2.299407
0.216              -3.006053e-05       -2.346018
0.22               -3.741716e-06       -2.392674
0.224              -4.435141e-07       -2.439367
0.228              -1.916691e-05       -2.486089
0.232              -6.047271e-05       -2.532833
0.236              -0.0001238899       -2.579591
0.24               -0.0002094731       -2.626355
0.244              -0.0003172736       -2.673118
0.248              -0.0004463155       -2.719871
0.252              -0.0005976921       -2.766609
0.256              -0.0007694024       -2.813323
0.26               -0.0009620241       -2.860007
0.264               -0.001173554       -2.906653
0.268               -0.001404065       -2.953255
0.272                -0.00165362       -2.999807
0.276               -0.001920744       -3.046302
0.28                -0.002205512       -3.092735
0.284               -0.002506953         -3.1391
0.288               -0.002822554       -3.185392
0.292               -0.003151349       -3.231606
0.296               -0.003495486       -3.277737
0.3                 -0.003849848       -3.323781
0.304               -0.004216575       -3.369735
0.308               -0.004593146       -3.415594
0.312               -0.004979104       -3.461357
0.316               -0.005372435       -3.507021
0.32                -0.005771646       -3.552582
0.324               -0.006176784       -3.598041
0.328               -0.006585825       -3.643395
0.332                -0.00699726       -3.688645
0.336               -0.007410602        -3.73379
0.34                -0.007823834       -3.778829
0.344               -0.008236443       -3.823764
0.348               -0.008646385       -3.868597
0.352               -0.009052133       -3.913327
0.356               -0.009453157       -3.957959
0.36                -0.009849479       -4.002494
0.364                -0.01023695       -4.046935
0.368                -0.01061659       -4.091286
0.372                -0.01098578       -4.135552
0.376                -0.01134451       -4.179736
0.38                 -0.01169119       -4.223844
0.384                -0.01202475        -4.26788
0.388                -0.01234409       -4.311851
0.392                -0.01264763       -4.355761
0.396                -0.01293528       -4.399619
0.4                  -0.01320647        -4.44343
0.404                -0.01345956       -4.487203
0.408                -0.01369395       -4.530944
0.412                -0.01390852       -4.574661
0.416                -0.01410369       -4.618362
0.42                 -0.01427832       -4.662056
0.424                -0.01443073       -4.705752
0.428                -0.01456237       -4.749458
0.432                -0.01467054        -4.79318
0.436                -0.01475717       -4.836932
0.44                 -0.01482004        -4.88072
0.444                 -0.0148611       -4.924556
0.448                -0.01487865       -4.968447
0.452                -0.01487306       -5.012404
0.456                -0.01484467       -5.056436
0.46                 -0.01479181       -5.100552
0.464                -0.01471792       -5.144762
0.468                -0.01462024       -5.189075
0.472                -0.01450017         -5.2335
0.476                -0.01435961       -5.278048
0.48                  -0.0141958       -5.322726
0.484                -0.01401219       -5.367544
0.488                -0.01380809        -5.41251
0.492                 -0.0135849       -5.457632
0.496                -0.01334137        -5.50292
0.5                  -0.01308149       -5.548382
0.504                 -0.0128025       -5.594023
0.508                 -0.0125089       -5.639852
0.512                -0.01219945       -5.685878
0.516                -0.01187557       -5.732104
0.52                 -0.01153914       -5.778539
0.524                -0.01119054       -5.825188
0.528                -0.01083063       -5.872056
0.532                -0.01046131       -5.919149
0.536                -0.01008351       -5.966471
0.54                -0.009698611       -6.014026
0.544               -0.009308545       -6.061819
0.548               -0.008913182       -6.109852
0.552               -0.008514993       -6.158127
0.556               -0.008114344       -6.206648
0.56                -0.007714251       -6.255417
0.564                -0.00731564       -6.304433
0.568               -0.006917363       -6.353699
0.572                -0.00652452       -6.403214
0.576               -0.006136504       -6.452978
0.58                -0.005755818       -6.502991
0.584               -0.005382414       -6.553251
0.588               -0.005018294       -6.603757
0.592               -0.004665997       -6.654506
0.596               -0.004323941       -6.705495
0.6                  -0.00399571       -6.756722
0.604               -0.003682318       -6.808183
0.608               -0.003383768       -6.859873
0.612               -0.003102122       -6.911789
0.616               -0.002839972       -6.963926
0.62                -0.002594772       -7.016277
0.624               -0.002371706       -7.068838
0.628               -0.002168236       -7.121603
0.632               -0.001986997       -7.174564
0.636               -0.001828572       -7.227715
0.64                -0.001693003       -7.281051
0.644                -0.00158247       -7.334562
0.648               -0.001496519       -7.388243
0.652               -0.001437313       -7.442085
0.656               -0.001401375       -7.496077
0.66                -0.001393413       -7.550217
0.664               -0.001412029       -7.604492
0.668               -0.001457834       -7.658897
0.672                -0.00152944       -7.713421
0.676               -0.001628495       -7.768057
0.68                -0.001755727       -7.822794
0.684               -0.001910157       -7.877628
0.688                 -0.0020915       -7.932546
0.692               -0.002299316       -7.987542
0.696               -0.002534322       -8.042608
0.7                 -0.002795079       -8.097736
0.704               -0.003082865       -8.152915
0.708               -0.003394638        -8.20814
0.712               -0.003731139       -8.263402
0.716               -0.004092466       -8.318695
0.72                -0.004475723       -8.374009
0.724               -0.004882538       -8.429341
0.728               -0.005310535       -8.484681
0.732               -0.005758807       -8.540024
0.736               -0.006227966       -8.595366
0.74                -0.006715079       -8.650698
0.744               -0.007218185       -8.706016
0.748               -0.007738378       -8.761318
0.752               -0.008273759       -8.816597
0.756               -0.008822848        -8.87185
0.76                -0.009384163       -8.927074
0.764               -0.009956738       -8.982266
0.768                -0.01053908       -9.037424
0.772                -0.01112915       -9.092546
0.776                -0.01172699       -9.147632
0.78                 -0.01232902       -9.202679
0.784                -0.01293622        -9.25769
0.788                -0.01354449       -9.312663
0.792                -0.01415377         -9.3676
0.796                -0.01476299       -9.422503
0.8                  -0.01536999       -9.477374
0.804                -0.01597316       -9.532217
0.808                -0.01657141       -9.587032
0.812                -0.01716246       -9.641826
0.816                -0.01774673       -9.696605
0.82                 -0.01832052        -9.75137
0.824                 -0.0188841       -9.806129
0.828                -0.01943519        -9.86089
0.832                -0.01997265       -9.915655
0.836                -0.02049565       -9.970435
0.84                 -0.02100147       -10.02523
0.844                -0.02149281       -10.08007
0.848                 -0.0219638       -10.13494
0.852                -0.02241673       -10.18985
0.856                -0.02284868       -10.24483
0.86                 -0.02325987       -10.29987
0.864                 -0.0236489       -10.35499
0.868                -0.02401595        -10.4102
0.872                -0.02435757       -10.46551
0.876                -0.02467751       -10.52093
0.88                 -0.02497218       -10.57648
0.884                -0.02524189       -10.63215
0.888                -0.02548603       -10.68797
0.892                -0.02570538       -10.74395
0.896                -0.02589829       -10.80011
0.9                  -0.02606602       -10.85644
0.904                -0.02620751       -10.91297
0.908                -0.02632334       -10.96971
0.912                -0.02641416       -11.02667
0.916                -0.02647943       -11.08387
0.92                 -0.02652025       -11.14131
0.924                -0.02653665       -11.19901
0.928                -0.02652979       -11.25697
0.932                -0.02650059       -11.31523
0.936                -0.02644819       -11.37377
0.94                 -0.02637416       -11.43262
0.944                -0.02627952       -11.49179
0.948                -0.02616641       -11.55129
0.952                -0.02603445       -11.61113
0.956                -0.02588617       -11.67132
0.96                 -0.02572067       -11.73186
0.964                -0.02554113       -11.79278
0.968                -0.02534919       -11.85408
0.972                -0.02514488       -11.91576
0.976                -0.02493047       -11.97784
0.98                 -0.02470808       -12.04032
0.984                -0.02447789       -12.10322
0.988                 -0.0242421       -12.16652
0.992                 -0.0240039       -12.23026
0.996                -0.02376255       -12.29442
1                    -0.02352172       -12.35902
1.004                -0.02328233       -12.42405
1.008                -0.02304752       -12.48953
1.012                -0.02281769       -12.55545
1.016                -0.02259504       -12.62182
1.02                 -0.02238147       -12.68864
1.024                -0.02217887       -12.75591
1.028                -0.02198905       -12.82363
1.032                -0.02181449        -12.8918
1.036                -0.02165602       -12.96042
1.04                 -0.02151667       -13.02949
1.044                -0.02139679       -13.09901
1.048                -0.02129871       -13.16898
1.052                -0.02122533       -13.23938
1.056                -0.02117698       -13.31023
1.06                 -0.02115556       -13.38151
1.064                -0.02116348       -13.45319
1.068                -0.02120055       -13.52532
1.072                -0.02126978       -13.59789
1.076                -0.02137196       -13.67083
1.08                 -0.02150841       -13.74416
1.084                -0.02168013       -13.81793
1.088                -0.02188856        -13.8921
1.092                -0.02213541       -13.96661
1.096                -0.02242072       -14.04155
1.1                  -0.02274626       -14.11679
1.104                -0.02311151       -14.19241
1.108                -0.02351879       -14.26837
1.112                -0.02396816        -14.3447
1.116                -0.02445931       -14.42133
1.12                 -0.02499422        -14.4983
1.124                 -0.0255724       -14.57553
1.128                -0.02619395        -14.6531
1.132                -0.02685876       -14.73095
1.136                 -0.0275677       -14.80907
1.14                 -0.02832006       -14.88747
1.144                -0.02911622       -14.96612
1.148                -0.02995481       -15.04503
1.152                 -0.0308361       -15.12417
1.156                -0.03176048       -15.20355
1.16                 -0.03272548       -15.28315
1.164                -0.03373094       -15.36296
1.168                -0.03477747       -15.44297
1.172                -0.03586199       -15.52318
1.176                -0.03698584       -15.60359
1.18                 -0.03814705       -15.68417
1.184                -0.03934245       -15.76493
1.188                -0.04057438       -15.84586
1.192                -0.04183767       -15.92696
1.196                -0.04313409       -16.00821
1.2                  -0.04446122       -16.08962
1.204                -0.04581691       -16.17118
1.208                -0.04719857       -16.25288
1.212                -0.04860735       -16.33474
1.216                -0.05003803       -16.41673
1.22                 -0.05149205       -16.49887
1.224                -0.05296653       -16.58115
1.228                -0.05445862       -16.66357
1.232                -0.05596717       -16.74614
1.236                -0.05749115       -16.82886
1.24                  -0.0590267       -16.91173
1.244                -0.06057287       -16.99475
1.248                -0.06212875       -17.07793
1.252                -0.06369088       -17.16127
1.256                -0.06525786       -17.24479
1.26                 -0.06682797       -17.32848
1.264                -0.06839964       -17.41237
1.268                 -0.0699698       -17.49644
1.272                -0.07153786       -17.58072
1.276                -0.07310181       -17.66522
1.28                 -0.07465914       -17.74994
1.284                -0.07620981       -17.83491
1.288                -0.07775062       -17.92012
1.292                -0.07928051       -18.00561
1.296                -0.08079825       -18.09137
1.3                  -0.08230316       -18.17744
1.304                -0.08379274       -18.26381
1.308                -0.08526694       -18.35052
1.312                -0.08672322       -18.43757
1.316                -0.08816284       -18.52499
1.32                 -0.08958271       -18.61279
1.324                -0.09098296       -18.70099
1.328                -0.09236405       -18.78962
1.332                -0.09372416       -18.87869
1.336                -0.09506337       -18.96823
1.34                 -0.09638164       -19.05824
1.344                -0.09767784       -19.14876
1.348                 -0.0989543       -19.23981
1.352                  -0.100209       -19.33141
1.356                 -0.1014428       -19.42357
1.36                  -0.1026574       -19.51634
1.364                 -0.1038527       -19.60971
1.368                 -0.1050283       -19.70372
1.372                 -0.1061867       -19.79839
1.376                 -0.1073283       -19.89375
1.38                  -0.1084551        -19.9898
1.384                 -0.1095677       -20.08658
1.388                 -0.1106668       -20.18411
1.392                 -0.1117559        -20.2824
1.396                 -0.1128363       -20.38148
1.4                   -0.1139085       -20.48137
1.404                 -0.1149762        -20.5821
1.408                 -0.1160408       -20.68367
1.412                 -0.1171052       -20.78612
1.416                 -0.1181717       -20.88945
1.42                  -0.1192425       -20.99369
1.424                 -0.1203196       -21.09885
1.428                 -0.1214084       -21.20496
1.432                 -0.1225081       -21.31202
1.436                 -0.1236242       -21.42006
1.44                  -0.1247594       -21.52909
1.444                  -0.125917       -21.63912
1.448                 -0.1270998       -21.75016
1.452                 -0.1283096       -21.86224
1.456                 -0.1295532       -21.97536
1.46                   -0.130831       -22.08953
1.464                 -0.1321476       -22.20476
1.468                 -0.1335062       -22.32106
1.472                 -0.1349112       -22.43844
1.476                  -0.136366       -22.55691
1.48                   -0.137872       -22.67647
1.484                 -0.1394358       -22.79713
1.488                 -0.1410589        -22.9189
1.492                 -0.1427463       -23.04177
1.496                 -0.1444998       -23.16575
1.5                   -0.1463242       -23.29084
1.504                 -0.1482236       -23.41705
1.508                 -0.1501993       -23.54437
1.512                 -0.1522563        -23.6728
1.516                 -0.1543972       -23.80235
1.52                  -0.1566263         -23.933
1.524                 -0.1589454       -24.06476
1.528                 -0.1613585       -24.19763
1.532                 -0.1638688       -24.33159
1.536                 -0.1664786       -24.46665
1.54                  -0.1691924        -24.6028
1.544                 -0.1720087       -24.74003
1.548                 -0.1749352       -24.87834
1.552                 -0.1779713       -25.01771
1.556                 -0.1811203       -25.15815
1.56                  -0.1843845       -25.29965
1.564                 -0.1877664       -25.44219
1.568                 -0.1912681       -25.58577
1.572                 -0.1948902       -25.73038
1.576                  -0.198636       -25.87601
1.58                  -0.2025055       -26.02266
1.584                  -0.206501       -26.17031
1.588                 -0.2106245       -26.31896
1.592                 -0.2148758       -26.46859
1.596                 -0.2192562        -26.6192
1.6                   -0.2237684       -26.77079
1.604                 -0.2284106       -26.92333
1.608                  -0.233186       -27.07684
1.612                 -0.2380914       -27.23129
1.616                 -0.2431303       -27.38669
1.62                  -0.2483022       -27.54303
1.624                 -0.2536065        -27.7003
1.628                 -0.2590426       -27.85849
1.632                 -0.2646127       -28.01762
1.636                 -0.2703137       -28.17766
1.64                  -0.2761452       -28.33863
1.644                   -0.28211       -28.50051
1.648                 -0.2882034       -28.66332
1.652                 -0.2944265       -28.82704
1.656                 -0.3007791        -28.9917
1.66                  -0.3072593       -29.15728
1.664                 -0.3138658       -29.32379
1.668                 -0.3205979       -29.49124
1.672                 -0.3274541       -29.65964
1.676                 -0.3344353         -29.829
1.68                  -0.3415373       -29.99932
1.684                 -0.3487617       -30.17063
1.688                 -0.3561054       -30.34293
1.692                 -0.3635667       -30.51624
1.696                 -0.3711448       -30.69057
1.7                   -0.3788407       -30.86595
1.704                  -0.386652       -31.04239
1.708                 -0.3945761       -31.21993
1.712                 -0.4026133       -31.39858
1.716                 -0.4107621       -31.57836
1.72                  -0.4190231        -31.7593
1.724                 -0.4273949       -31.94145
1.728                 -0.4358753       -32.12481
1.732                 -0.4444663       -32.30944
1.736                 -0.4531662       -32.49536
1.74                  -0.4619748        -32.6826
1.744                 -0.4708914       -32.87121
1.748                 -0.4799187       -33.06123
1.752                 -0.4890554        -33.2527
1.756                 -0.4983023       -33.44565
1.76                  -0.5076592       -33.64014
1.764                 -0.5171319       -33.83622
1.768                 -0.5267156       -34.03392
1.772                 -0.5364161        -34.2333
1.776                 -0.5462342       -34.43441
1.78                  -0.5561733        -34.6373
1.784                 -0.5662346       -34.84203
1.788                 -0.5764204       -35.04864
1.792                 -0.5867367        -35.2572
1.796                  -0.597186       -35.46776
1.8                   -0.6077719       -35.68038
1.804                  -0.618498       -35.89511
1.808                 -0.6293718       -36.11203
1.812                 -0.6403962       -36.33119
1.816                 -0.6515785       -36.55264
1.82                  -0.6629238       -36.77645
1.824                 -0.6744382       -37.00269
1.828                 -0.6861295       -37.23143
1.832                 -0.6980068       -37.46271
1.836                 -0.7100744        -37.6966
1.84                   -0.722343       -37.93317
1.844                 -0.7348196       -38.17248
1.848                 -0.7475148        -38.4146
1.852                 -0.7604373       -38.65958
1.856                 -0.7735981       -38.90749
1.86                  -0.7870073        -39.1584
1.864                 -0.8006764       -39.41236
1.868                 -0.8146162       -39.66944
1.872                 -0.8288392       -39.92971
1.876                 -0.8433588       -40.19321
1.88                   -0.858185          -40.46
1.884                 -0.8733347       -40.73017
1.888                 -0.8888193       -41.00374
1.892                 -0.9046551       -41.28079
1.896                 -0.9208539       -41.56137
1.9                   -0.9374344       -41.84554
1.904                 -0.9544099       -42.13333
1.908                 -0.9717973       -42.42483
1.912                 -0.9896132       -42.72005
1.916                  -1.007875       -43.01908
1.92                   -1.026599       -43.32193
1.924                  -1.045804       -43.62866
1.928                  -1.065508       -43.93933
1.932                  -1.085731       -44.25396
1.936                  -1.106491       -44.57261
1.94                   -1.127807        -44.8953
1.944                    -1.1497       -45.22209
1.948                   -1.17219       -45.55299
1.952                  -1.195297       -45.88805
1.956                  -1.219044        -46.2273
1.96                    -1.24345       -46.57077
1.964                  -1.268538       -46.91848
1.968                  -1.294333       -47.27046
1.972                  -1.320855       -47.62675
1.976                  -1.348127       -47.98736
1.98                   -1.376173        -48.3523
1.984                  -1.405016        -48.7216
1.988                  -1.434682       -49.09527
1.992                  -1.465196       -49.47335
1.996                   -1.49658       -49.85582
2                      -1.528863        -50.2427
2.004                  -1.562067         -50.634
2.008                  -1.596221       -51.02974
2.012                  -1.631352       -51.42992
2.016                  -1.667484       -51.83453
2.02                   -1.704647        -52.2436
2.024                  -1.742867        -52.6571
2.028                  -1.782174       -53.07505
2.032                  -1.822596       -53.49743
2.036                  -1.864161       -53.92426
2.04                   -1.906899        -54.3555
2.044                  -1.950842       -54.79118
2.048                  -1.996019       -55.23127
2.052                  -2.042461       -55.67577
2.056                    -2.0902       -56.12467
2.06                   -2.139266       -56.57793
2.064                  -2.189696       -57.03558
2.068                   -2.24152       -57.49758
2.072                  -2.294773       -57.96392
2.076                   -2.34949       -58.43458
2.08                   -2.405706       -58.90955
2.084                  -2.463455       -59.38882
2.088                  -2.522777       -59.87234
2.092                  -2.583707       -60.36011
2.096                  -2.646286       -60.85213
2.1                    -2.710551       -61.34835
2.104                  -2.776544       -61.84876
2.108                  -2.844303       -62.35334
2.112                  -2.913873       -62.86207
2.116                  -2.985297       -63.37491
2.12                   -3.058618       -63.89187
2.124                  -3.133884       -64.41291
2.128                  -3.211139       -64.93801
2.132                  -3.290433       -65.46716
2.136                  -3.371817       -66.00032
2.14                   -3.455339       -66.53747
2.144                  -3.541055       -67.07862
2.148                  -3.629018       -67.62374
2.152                  -3.719285       -68.17278
2.156                  -3.811913       -68.72577
2.16                   -3.906963       -69.28266
2.164                  -4.004499       -69.84347
2.168                  -4.104584       -70.40815
2.172                  -4.207287       -70.97671
2.176                  -4.312678       -71.54915
2.18                   -4.420828       -72.12546
2.184                  -4.531816       -72.70561
2.188                  -4.645719       -73.28963
2.192                   -4.76262       -73.87752
2.196                  -4.882607       -74.46929
2.2                    -5.005769       -75.06493
2.204                  -5.132199       -75.66446
2.208                  -5.261999       -76.26792
2.212                  -5.395272       -76.87529
2.216                  -5.532129       -77.48667
2.22                   -5.672681       -78.10202
2.224                  -5.817053       -78.72144
2.228                  -5.965373       -79.34496
2.232                  -6.117774       -79.97264
2.236                    -6.2744       -80.60455
2.24                   -6.435402       -81.24078
2.244                  -6.600942       -81.88141
2.248                  -6.771188       -82.52654
2.252                  -6.946324        -83.1763
2.256                   -7.12654       -83.83083
2.26                   -7.312044       -84.49027
2.264                  -7.503057       -85.15482
2.268                  -7.699814       -85.82464
2.272                  -7.902567       -86.49998
2.276                  -8.111588       -87.18109
2.28                   -8.327171       -87.86825
2.284                  -8.549631        -88.5618
2.288                  -8.779308       -89.26209
2.292                  -9.016573       -89.96953
2.296                  -9.261826       -90.68461
2.3                    -9.515505       -91.40788
2.304                  -9.778087       -92.13993
2.308                  -10.05009       -92.88148
2.312                  -10.33209       -93.63334
2.316                  -10.62472       -94.39643
2.32                   -10.92867       -95.17184
2.324                  -11.24472       -95.96078
2.328                  -11.57371       -96.76472
2.332                  -11.91661       -97.58535
2.336                   -12.2745       -98.42465
2.34                   -12.64856       -99.28495
2.344                  -13.04018       -100.1691
2.348                  -13.45089       -101.0803
2.352                  -13.88248       -102.0227
2.356                  -14.33699       -103.0012
2.36                   -14.81676       -104.0217
2.364                  -15.32454       -105.0918
2.368                  -15.86356       -106.2206
2.372                  -16.43764         -107.42
2.376                  -17.05131       -108.7053
2.38                   -17.71007       -110.0964
2.384                  -18.42057       -111.6198
2.388                  -19.19102       -113.3116
2.392                  -20.03159       -115.2219
2.396                  -20.95505       -117.4224
2.4                    -21.97747       -120.0188
2.404                  -23.11909       -123.1727