! TOUCHSTONE file generated by CST MICROWAVE STUDIO
! Date and time: Fri May  6 15:38:58 2022
! Project name: ant1_ceramic_sweep_fr4.cst
! Parameters = {e=0.035; h=1.6; i=0.8; l1=0.5; l2=20.96; ls=80.8; wl=1.7; ws=30}
! Header version: 2018
! Port assignment regex: !\s*Touchstone port\s*([0-9]+)\s*=\s*(CST MWS port|CST DS port)\s*([0-9]+|Zmin|Zmax)\s*\(\"(.*)\"\)(\s*mode\s*([0-9]+))?.*
! Touchstone port assignment:
! Touchstone port 1 = CST MWS port 1 ("")
# GHz S DB R 50
0                    -0.01396739              -0
0.004                -0.01395692      -0.0404488
0.008                 -0.0139245      -0.0809061
0.012                -0.01387011      -0.1213804
0.016                -0.01379426        -0.16188
0.02                 -0.01369799      -0.2024135
0.024                -0.01358022      -0.2429889
0.028                -0.01344147      -0.2836145
0.032                -0.01328327      -0.3242981
0.036                -0.01310507      -0.3650478
0.04                 -0.01290737       -0.405871
0.044                 -0.0126922      -0.4467752
0.048                -0.01245952      -0.4877675
0.052                -0.01220776      -0.5288548
0.056                -0.01194101       -0.570044
0.06                 -0.01165924      -0.6113412
0.064                -0.01136291      -0.6527525
0.068                -0.01105145      -0.6942837
0.072                -0.01072898      -0.7359401
0.076                -0.01039439      -0.7777266
0.08                 -0.01004868      -0.8196481
0.084               -0.009693864      -0.8617087
0.088               -0.009329883      -0.9039122
0.092               -0.008959793      -0.9462621
0.096               -0.008583018      -0.9887615
0.1                 -0.008200539       -1.031413
0.104               -0.007813851       -1.074218
0.108               -0.007426007        -1.11718
0.112               -0.007035912       -1.160298
0.116               -0.006646619       -1.203575
0.12                -0.006257035        -1.24701
0.124               -0.005869696       -1.290604
0.128               -0.005485584       -1.334356
0.132               -0.005106201       -1.378264
0.136               -0.004734089       -1.422329
0.14                -0.004367642       -1.466547
0.144               -0.004009406       -1.510917
0.148               -0.003660892       -1.555436
0.152               -0.003323093       -1.600102
0.156               -0.002995973        -1.64491
0.16                -0.002681051       -1.689857
0.164               -0.002379849       -1.734938
0.168               -0.002093894       -1.780151
0.172               -0.001821091       -1.825488
0.176               -0.001565562       -1.870945
0.18                -0.001328324       -1.916518
0.184               -0.001107301       -1.962199
0.188              -0.0009050694       -2.007984
0.192              -0.0007216276       -2.053865
0.196              -0.0005580126       -2.099837
0.2                -0.0004142325       -2.145891
0.204              -0.0002928831       -2.192023
0.208              -0.0001908764       -2.238224
0.212              -0.0001102993       -2.284487
0.216              -5.221396e-05       -2.330805
0.22                -1.50946e-05       -2.377171
0.224              -5.257746e-07       -2.423577
0.228              -8.546794e-06       -2.470015
0.232              -3.867679e-05       -2.516479
0.236              -9.044582e-05        -2.56296
0.24               -0.0001639024       -2.609451
0.244              -0.0002601334       -2.655945
0.248              -0.0003771189       -2.702434
0.252              -0.0005154438       -2.748911
0.256              -0.0006751583       -2.795369
0.26               -0.0008552973         -2.8418
0.264               -0.001054368       -2.888199
0.268               -0.001273994       -2.934558
0.272               -0.001511654       -2.980871
0.276               -0.001766383       -3.027131
0.28                -0.002039805       -3.073334
0.284               -0.002327847       -3.119472
0.288               -0.002633688       -3.165542
0.292               -0.002953772       -3.211538
0.296               -0.003287135       -3.257455
0.3                 -0.003632808        -3.30329
0.304               -0.003989827       -3.349037
0.308               -0.004358253       -3.394693
0.312               -0.004736078       -3.440256
0.316                -0.00512181       -3.485723
0.32                -0.005514988       -3.531091
0.324               -0.005915145       -3.576358
0.328               -0.006319747       -3.621523
0.332               -0.006727797       -3.666585
0.336               -0.007137787       -3.711543
0.34                -0.007549227       -3.756399
0.344                -0.00796061       -3.801149
0.348               -0.008370393       -3.845798
0.352                -0.00877757       -3.890345
0.356               -0.009181121       -3.934792
0.36                -0.009578964       -3.979143
0.364               -0.009971632       -4.023399
0.368                -0.01035654       -4.067563
0.372                -0.01073158       -4.111639
0.376                 -0.0110983       -4.155631
0.38                 -0.01145253       -4.199544
0.384                -0.01179631       -4.243382
0.388                -0.01212599       -4.287149
0.392                -0.01244148       -4.330854
0.396                -0.01274173         -4.3745
0.4                  -0.01302665       -4.418096
0.404                -0.01329413       -4.461645
0.408                -0.01354407       -4.505158
0.412                -0.01377537       -4.548639
0.416                 -0.0139874       -4.592099
0.42                 -0.01417957       -4.635543
0.424                -0.01435124        -4.67898
0.428                -0.01450178        -4.72242
0.432                 -0.0146311       -4.765869
0.436                -0.01473905       -4.809338
0.44                 -0.01482399       -4.852834
0.444                -0.01488677       -4.896368
0.448                -0.01492678       -4.939947
0.452                -0.01494386       -4.983582
0.456                -0.01493785       -5.027282
0.46                 -0.01490966       -5.071055
0.464                -0.01485861       -5.114911
0.468                -0.01478401        -5.15886
0.472                -0.01468727        -5.20291
0.476                -0.01456927       -5.247071
0.48                 -0.01442929       -5.291352
0.484                -0.01426876        -5.33576
0.488                -0.01408695       -5.380307
0.492                -0.01388528       -5.424999
0.496                -0.01366461       -5.469846
0.5                  -0.01342371       -5.514853
0.504                -0.01316657       -5.560032
0.508                 -0.0128925       -5.605388
0.512                -0.01260134       -5.650928
0.516                -0.01229446        -5.69666
0.52                  -0.0119748       -5.742591
0.524                 -0.0116417       -5.788725
0.528                 -0.0112955        -5.83507
0.532                -0.01093864       -5.881631
0.536                -0.01057305       -5.928412
0.54                 -0.01019804       -5.975419
0.544               -0.009815555       -6.022655
0.548               -0.009427524       -6.070125
0.552               -0.009035365       -6.117831
0.556               -0.008639984       -6.165777
0.56                -0.008241777       -6.213964
0.564               -0.007842724       -6.262394
0.568               -0.007444235        -6.31107
0.572               -0.007048309       -6.359991
0.576               -0.006655343       -6.409159
0.58                -0.006266842       -6.458571
0.584               -0.005886326       -6.508231
0.588               -0.005510639       -6.558133
0.592               -0.005145915        -6.60828
0.596               -0.004791603       -6.658667
0.6                 -0.004447134       -6.709292
0.604               -0.004116103       -6.760153
0.608               -0.003797959       -6.811246
0.612               -0.003496344       -6.862567
0.616               -0.003209661       -6.914113
0.62                -0.002940557       -6.965876
0.624               -0.002691061       -7.017856
0.628               -0.002459152       -7.070044
0.632               -0.002248508       -7.122434
0.636               -0.002059147       -7.175022
0.64                -0.001891638       -7.227802
0.644               -0.001746591       -7.280764
0.648               -0.001625594       -7.333904
0.652               -0.001529797       -7.387214
0.656               -0.001458251       -7.440685
0.66                -0.001411518       -7.494312
0.664               -0.001391309       -7.548086
0.668               -0.001395679       -7.601996
0.672               -0.001428317       -7.656039
0.676               -0.001487288       -7.710205
0.68                -0.001573263       -7.764485
0.684               -0.001685839       -7.818871
0.688               -0.001826192       -7.873355
0.692                 -0.0019914       -7.927927
0.696               -0.002184702        -7.98258
0.7                 -0.002403628       -8.037305
0.704               -0.002649357       -8.092098
0.708               -0.002920013       -8.146945
0.712               -0.003217298       -8.201842
0.716               -0.003537717       -8.256781
0.72                -0.003884043       -8.311753
0.724               -0.004252735       -8.366754
0.728               -0.004643517       -8.421772
0.732               -0.005057013       -8.476804
0.736                 -0.0054918       -8.531844
0.74                -0.005944921       -8.586883
0.744               -0.006418014       -8.641919
0.748               -0.006910237       -8.696945
0.752               -0.007417482       -8.751957
0.756               -0.007941002       -8.806948
0.76                -0.008479214       -8.861918
0.764               -0.009030245       -8.916859
0.768               -0.009592553       -8.971771
0.772                -0.01016722       -9.026654
0.776                 -0.0107497         -9.0815
0.78                 -0.01133949        -9.13631
0.784                -0.01193712       -9.191086
0.788                -0.01253902       -9.245822
0.792                -0.01314464       -9.300522
0.796                -0.01375189       -9.355186
0.8                  -0.01435972       -9.409814
0.804                -0.01496648        -9.46441
0.808                -0.01557112       -9.518974
0.812                -0.01617149       -9.573509
0.816                -0.01676644        -9.62802
0.82                 -0.01735582       -9.682512
0.824                -0.01793541       -9.736985
0.828                -0.01850761        -9.79145
0.832                -0.01906764       -9.845908
0.836                -0.01961528       -9.900366
0.84                 -0.02015033       -9.954832
0.844                -0.02067051       -10.00931
0.848                -0.02117401       -10.06382
0.852                -0.02166214       -10.11835
0.856                -0.02213156       -10.17292
0.86                 -0.02258141       -10.22754
0.864                -0.02301088       -10.28222
0.868                 -0.0234207       -10.33696
0.872                -0.02380799       -10.39179
0.876                -0.02417337        -10.4467
0.88                 -0.02451601        -10.5017
0.884                -0.02483449       -10.55682
0.888                -0.02512844       -10.61206
0.892                -0.02539797       -10.66743
0.896                -0.02564263       -10.72295
0.9                  -0.02586309       -10.77862
0.904                -0.02605631       -10.83446
0.908                 -0.0262255       -10.89048
0.912                -0.02636918       -10.94669
0.916                -0.02648687       -11.00311
0.92                 -0.02658077       -11.05974
0.924                -0.02664823       -11.11661
0.928                -0.02669253       -11.17371
0.932                -0.02671213       -11.23107
0.936                -0.02670866       -11.28869
0.94                 -0.02668311        -11.3466
0.944                -0.02663459       -11.40479
0.948                -0.02656574       -11.46328
0.952                -0.02647604       -11.52209
0.956                -0.02636762       -11.58121
0.96                 -0.02624009       -11.64067
0.964                -0.02609555       -11.70048
0.968                -0.02593612       -11.76063
0.972                -0.02576086       -11.82115
0.976                -0.02557249       -11.88204
0.98                 -0.02537311       -11.94332
0.984                -0.02516344       -12.00498
0.988                -0.02494455       -12.06703
0.992                -0.02471767       -12.12949
0.996                -0.02448606       -12.19236
1                    -0.02424979       -12.25565
1.004                -0.02401223       -12.31936
1.008                  -0.023773       -12.38349
1.012                -0.02353498       -12.44806
1.016                -0.02330091       -12.51306
1.02                 -0.02307106        -12.5785
1.024                -0.02284778       -12.64438
1.028                -0.02263337        -12.7107
1.032                -0.02242869       -12.77747
1.036                -0.02223718       -12.84468
1.04                 -0.02205866       -12.91234
1.044                -0.02189602       -12.98044
1.048                -0.02175069       -13.04899
1.052                -0.02162387         -13.118
1.056                -0.02151935       -13.18742
1.06                 -0.02143759       -13.25728
1.064                -0.02137936       -13.32755
1.068                -0.02134777       -13.39828
1.072                -0.02134367       -13.46945
1.076                 -0.0213683       -13.54103
1.08                 -0.02142412       -13.61302
1.084                -0.02151038       -13.68539
1.088                -0.02163128        -13.7582
1.092                -0.02178595        -13.8314
1.096                -0.02197687       -13.90497
1.1                  -0.02220341       -13.97895
1.104                 -0.0224695        -14.0533
1.108                -0.02277348       -14.12799
1.112                -0.02311673       -14.20304
1.116                -0.02350069       -14.27845
1.12                 -0.02392574       -14.35418
1.124                -0.02439234       -14.43027
1.128                -0.02490122       -14.50664
1.132                -0.02545148       -14.58335
1.136                -0.02604602       -14.66035
1.14                 -0.02668252       -14.73764
1.144                -0.02736316       -14.81522
1.148                -0.02808543       -14.89306
1.152                -0.02885132       -14.97117
1.156                -0.02965922       -15.04954
1.16                 -0.03050995       -15.12814
1.164                -0.03140303       -15.20698
1.168                -0.03233643       -15.28605
1.172                -0.03331181       -15.36533
1.176                -0.03432567       -15.44483
1.18                 -0.03538005       -15.52452
1.184                -0.03647195        -15.6044
1.188                 -0.0376015       -15.68448
1.192                -0.03876752       -15.76473
1.196                -0.03996741       -15.84515
1.2                  -0.04120294       -15.92575
1.204                 -0.0424691        -16.0065
1.208                -0.04376752       -16.08741
1.212                -0.04509612       -16.16848
1.216                -0.04645147       -16.24969
1.22                  -0.0478335       -16.33105
1.224                -0.04923956       -16.41256
1.228                -0.05067072       -16.49421
1.232                -0.05212277         -16.576
1.236                -0.05359399       -16.65794
1.24                 -0.05508174       -16.74002
1.244                 -0.0565877       -16.82224
1.248                -0.05810659       -16.90461
1.252                -0.05963852       -16.98714
1.256                -0.06118076       -17.06981
1.26                  -0.0627307       -17.15265
1.264                -0.06428793       -17.23565
1.268                -0.06585022       -17.31882
1.272                 -0.0674151       -17.40218
1.276                -0.06898182       -17.48572
1.28                 -0.07054649       -17.56945
1.284                -0.07211025       -17.65339
1.288                -0.07366945       -17.73755
1.292                -0.07522271       -17.82193
1.296                -0.07676885       -17.90655
1.3                  -0.07830539       -17.99142
1.304                -0.07983229       -18.07656
1.308                -0.08134756       -18.16198
1.312                -0.08284936        -18.2477
1.316                 -0.0843375       -18.33372
1.32                 -0.08581061       -18.42008
1.324                -0.08726592       -18.50677
1.328                -0.08870556       -18.59383
1.332                -0.09012623       -18.68127
1.336                 -0.0915283        -18.7691
1.34                  -0.0929109       -18.85736
1.344                -0.09427362       -18.94605
1.348                -0.09561737        -19.0352
1.352                -0.09693964       -19.12482
1.356                -0.09824186       -19.21494
1.36                 -0.09952298       -19.30558
1.364                 -0.1007854       -19.39676
1.368                 -0.1020259        -19.4885
1.372                  -0.103248       -19.58082
1.376                 -0.1044521       -19.67375
1.38                  -0.1056376        -19.7673
1.384                 -0.1068062        -19.8615
1.388                 -0.1079585       -19.95637
1.392                 -0.1090964       -20.05193
1.396                 -0.1102197       -20.14819
1.4                   -0.1113322       -20.24519
1.404                 -0.1124333       -20.34295
1.408                  -0.113526       -20.44148
1.412                 -0.1146107        -20.5408
1.416                 -0.1156922       -20.64093
1.42                  -0.1167702        -20.7419
1.424                 -0.1178463       -20.84372
1.428                 -0.1189267       -20.94642
1.432                 -0.1200095          -21.05
1.436                 -0.1210986       -21.15449
1.44                  -0.1221987        -21.2599
1.444                 -0.1233103       -21.36625
1.448                 -0.1244371       -21.47356
1.452                 -0.1255819       -21.58183
1.456                 -0.1267481       -21.69109
1.46                  -0.1279391       -21.80134
1.464                 -0.1291558       -21.91261
1.468                 -0.1304039       -22.02489
1.472                 -0.1316864       -22.13821
1.476                 -0.1330058       -22.25257
1.48                  -0.1343669       -22.36798
1.484                 -0.1357708       -22.48445
1.488                 -0.1372224       -22.60198
1.492                 -0.1387248       -22.72059
1.496                 -0.1402823       -22.84028
1.5                   -0.1418972       -22.96106
1.504                  -0.143574       -23.08292
1.508                 -0.1453146       -23.20587
1.512                 -0.1471242       -23.32992
1.516                 -0.1490051       -23.45507
1.52                  -0.1509604       -23.58131
1.524                 -0.1529947       -23.70864
1.528                 -0.1551106       -23.83708
1.532                 -0.1573113        -23.9666
1.536                 -0.1595993       -24.09722
1.54                  -0.1619791       -24.22893
1.544                  -0.164452       -24.36172
1.548                 -0.1670212       -24.49559
1.552                 -0.1696903       -24.63054
1.556                 -0.1724621       -24.76656
1.56                  -0.1753383       -24.90365
1.564                 -0.1783232       -25.04179
1.568                 -0.1814166       -25.18099
1.572                 -0.1846224       -25.32123
1.576                 -0.1879424        -25.4625
1.58                  -0.1913782       -25.60481
1.584                 -0.1949326       -25.74814
1.588                  -0.198607       -25.89248
1.592                 -0.2024038       -26.03783
1.596                 -0.2063225       -26.18418
1.6                   -0.2103655       -26.33151
1.604                 -0.2145351       -26.47983
1.608                 -0.2188306       -26.62912
1.612                 -0.2232538       -26.77938
1.616                  -0.227806        -26.9306
1.62                  -0.2324869       -27.08276
1.624                 -0.2372981       -27.23588
1.628                 -0.2422387       -27.38993
1.632                 -0.2473106       -27.54492
1.636                 -0.2525124       -27.70083
1.64                  -0.2578447       -27.85767
1.644                 -0.2633077       -28.01543
1.648                 -0.2689009       -28.17411
1.652                 -0.2746243        -28.3337
1.656                  -0.280477        -28.4942
1.66                  -0.2864591       -28.65563
1.664                 -0.2925696       -28.81797
1.668                 -0.2988059       -28.98121
1.672                 -0.3051706       -29.14539
1.676                 -0.3116604       -29.31049
1.68                  -0.3182758       -29.47652
1.684                 -0.3250145       -29.64349
1.688                  -0.331877        -29.8114
1.692                 -0.3388594       -29.98026
1.696                  -0.345965        -30.1501
1.7                   -0.3531883       -30.32091
1.704                 -0.3605314       -30.49272
1.708                 -0.3679913       -30.66554
1.712                 -0.3755668       -30.83938
1.716                 -0.3832582       -31.01426
1.72                  -0.3910649       -31.19022
1.724                  -0.398983       -31.36725
1.728                 -0.4070155        -31.5454
1.732                 -0.4151578       -31.72468
1.736                 -0.4234117       -31.90513
1.74                  -0.4317753       -32.08676
1.744                 -0.4402486       -32.26963
1.748                 -0.4488316       -32.45375
1.752                 -0.4575236       -32.63915
1.756                 -0.4663247       -32.82587
1.76                  -0.4752356       -33.01396
1.764                 -0.4842566       -33.20345
1.768                 -0.4933867       -33.39438
1.772                 -0.5026289       -33.58679
1.776                  -0.511983       -33.78072
1.78                  -0.5214495       -33.97623
1.784                 -0.5310312       -34.17335
1.788                 -0.5407298       -34.37214
1.792                 -0.5505459       -34.57264
1.796                 -0.5604849        -34.7749
1.8                   -0.5705475       -34.97899
1.804                 -0.5807353       -35.18494
1.808                  -0.591055       -35.39281
1.812                  -0.601508       -35.60266
1.816                 -0.6120998       -35.81454
1.82                  -0.6228325       -36.02851
1.824                 -0.6337124       -36.24464
1.828                 -0.6447459       -36.46297
1.832                 -0.6559366       -36.68357
1.836                 -0.6672912        -36.9065
1.84                  -0.6788159       -37.13181
1.844                 -0.6905176       -37.35956
1.848                 -0.7024052       -37.58983
1.852                 -0.7144837       -37.82267
1.856                 -0.7267625       -38.05814
1.86                    -0.73925        -38.2963
1.864                 -0.7519556       -38.53722
1.868                 -0.7648874       -38.78095
1.872                 -0.7780556       -39.02755
1.876                 -0.7914719       -39.27709
1.88                   -0.805147       -39.52963
1.884                 -0.8190904       -39.78523
1.888                 -0.8333144       -40.04394
1.892                 -0.8478314       -40.30583
1.896                 -0.8626541       -40.57095
1.9                   -0.8777955       -40.83936
1.904                 -0.8932684       -41.11112
1.908                 -0.9090881       -41.38628
1.912                 -0.9252677        -41.6649
1.916                 -0.9418213       -41.94701
1.92                  -0.9587655       -42.23269
1.924                 -0.9761155       -42.52198
1.928                 -0.9938877       -42.81493
1.932                  -1.012098       -43.11158
1.936                  -1.030764       -43.41199
1.94                   -1.049902       -43.71619
1.944                   -1.06953       -44.02424
1.948                  -1.089667       -44.33616
1.952                  -1.110331       -44.65202
1.956                  -1.131542       -44.97183
1.96                   -1.153316       -45.29563
1.964                  -1.175677       -45.62347
1.968                  -1.198643       -45.95538
1.972                  -1.222234       -46.29137
1.976                  -1.246471       -46.63149
1.98                   -1.271376       -46.97577
1.984                  -1.296972       -47.32423
1.988                  -1.323278       -47.67688
1.992                  -1.350318       -48.03376
1.996                  -1.378114       -48.39489
2                       -1.40669       -48.76029
2.004                  -1.436069       -49.12996
2.008                  -1.466275       -49.50392
2.012                  -1.497332       -49.88219
2.016                  -1.529265       -50.26479
2.02                   -1.562098       -50.65172
2.024                  -1.595858       -51.04298
2.028                  -1.630571        -51.4386
2.032                  -1.666259       -51.83855
2.036                  -1.702952       -52.24285
2.04                   -1.740676        -52.6515
2.044                   -1.77946       -53.06451
2.048                  -1.819329       -53.48188
2.052                  -1.860313       -53.90359
2.056                  -1.902441       -54.32963
2.06                    -1.94574       -54.76001
2.064                  -1.990241       -55.19473
2.068                  -2.035973       -55.63376
2.072                   -2.08297        -56.0771
2.076                  -2.131258       -56.52474
2.08                   -2.180872       -56.97668
2.084                  -2.231842       -57.43288
2.088                  -2.284203       -57.89334
2.092                  -2.337988       -58.35804
2.096                  -2.393229       -58.82698
2.1                    -2.449963       -59.30012
2.104                  -2.508222       -59.77744
2.108                  -2.568049       -60.25897
2.112                  -2.629474       -60.74462
2.116                  -2.692539       -61.23443
2.12                   -2.757282       -61.72836
2.124                  -2.823739       -62.22637
2.128                  -2.891956       -62.72847
2.132                  -2.961971       -63.23461
2.136                  -3.033827        -63.7448
2.14                    -3.10757         -64.259
2.144                  -3.183244        -64.7772
2.148                  -3.260894       -65.29938
2.152                  -3.340569       -65.82549
2.156                  -3.422317       -66.35555
2.16                   -3.506189       -66.88953
2.164                  -3.592237       -67.42742
2.168                  -3.680517       -67.96916
2.172                  -3.771081       -68.51478
2.176                  -3.863989       -69.06426
2.18                   -3.959302       -69.61756
2.184                  -4.057077       -70.17469
2.188                  -4.157384       -70.73563
2.192                  -4.260287       -71.30038
2.196                  -4.365853       -71.86893
2.2                    -4.474159       -72.44127
2.204                  -4.585274       -73.01738
2.208                  -4.699283       -73.59732
2.212                  -4.816262       -74.18103
2.216                  -4.936299       -74.76856
2.22                   -5.059483        -75.3599
2.224                  -5.185908       -75.95507
2.228                   -5.31567       -76.55411
2.232                  -5.448875       -77.15702
2.236                  -5.585628       -77.76384
2.24                   -5.726045       -78.37461
2.244                  -5.870243       -78.98939
2.248                  -6.018352       -79.60819
2.252                  -6.170502       -80.23113
2.256                  -6.326836       -80.85822
2.26                   -6.487504       -81.48959
2.264                   -6.65266        -82.1253
2.268                  -6.822478       -82.76548
2.272                  -6.997132       -83.41025
2.276                  -7.176815       -84.05973
2.28                    -7.36173       -84.71408
2.284                  -7.552093       -85.37348
2.288                  -7.748137       -86.03813
2.292                   -7.95011       -86.70824
2.296                   -8.15828       -87.38408
2.3                    -8.372936       -88.06593
2.304                  -8.594386        -88.7541
2.308                  -8.822967       -89.44899
2.312                  -9.059042       -90.15097
2.316                  -9.303004       -90.86054
2.32                   -9.555282       -91.57822
2.324                  -9.816347       -92.30463
2.328                   -10.0867       -93.04049
2.332                  -10.36692       -93.78655
2.336                  -10.65761       -94.54378
2.34                   -10.95945       -95.31318
2.344                  -11.27321       -96.09602
2.348                   -11.5997       -96.89372
2.352                  -11.93988       -97.70791
2.356                  -12.29478       -98.54057
2.36                   -12.66557         -99.394
2.364                   -13.0536       -100.2709
2.368                  -13.46035       -101.1746
2.372                  -13.88756       -102.1089
2.376                   -14.3372       -103.0786
2.38                   -14.81155       -104.0897
2.384                  -15.31326       -105.1491
2.388                  -15.84543       -106.2661
2.392                  -16.41174       -107.4519
2.396                  -17.01654       -108.7212
2.4                    -17.66509        -110.093
2.404                  -18.36374       -111.5927