! TOUCHSTONE file generated by CST MICROWAVE STUDIO
! Date and time: Fri May  6 15:38:55 2022
! Project name: ant1_ceramic_sweep_fr4.cst
! Parameters = {e=0.035; h=1.6; i=0.8; l1=0.55; l2=20.96; ls=80; wl=1.7; ws=30}
! Header version: 2018
! Port assignment regex: !\s*Touchstone port\s*([0-9]+)\s*=\s*(CST MWS port|CST DS port)\s*([0-9]+|Zmin|Zmax)\s*\(\"(.*)\"\)(\s*mode\s*([0-9]+))?.*
! Touchstone port assignment:
! Touchstone port 1 = CST MWS port 1 ("")
# GHz S DB R 50
0                    -0.01328085              -0
0.004                -0.01327138      -0.0408543
0.008                -0.01323935     -0.08171676
0.012                -0.01318786      -0.1225956
0.016                -0.01311586      -0.1634988
0.02                 -0.01302334      -0.2044344
0.024                -0.01291081      -0.2454105
0.028                -0.01277825      -0.2864348
0.032                -0.01262719      -0.3275149
0.036                -0.01245708      -0.3686586
0.04                  -0.0122679      -0.4098729
0.044                 -0.0120617       -0.451165
0.048                -0.01183844      -0.4925419
0.052                -0.01160014      -0.5340104
0.056                -0.01134472      -0.5755765
0.06                  -0.0110747      -0.6172466
0.064                -0.01079213      -0.6590265
0.068                -0.01049436      -0.7009215
0.072                -0.01018602      -0.7429369
0.076               -0.009865489      -0.7850775
0.08                -0.009536356      -0.8273477
0.084                -0.00919701      -0.8697517
0.088               -0.008850507      -0.9122931
0.092               -0.008496274      -0.9549752
0.096                -0.00813633      -0.9978008
0.1                 -0.007770618       -1.040773
0.104               -0.007402711       -1.083892
0.108               -0.007032551       -1.127162
0.112               -0.006660603       -1.170583
0.116               -0.006288882       -1.214156
0.12                -0.005917335       -1.257881
0.124               -0.005549018       -1.301759
0.128               -0.005182842       -1.345788
0.132               -0.004822902       -1.389968
0.136               -0.004467076       -1.434298
0.14                -0.004118945       -1.478775
0.144               -0.003778463       -1.523398
0.148               -0.003446624       -1.568165
0.152               -0.003125462       -1.613072
0.156               -0.002815458       -1.658116
0.16                -0.002516061       -1.703293
0.164               -0.002230865         -1.7486
0.168               -0.001958292       -1.794032
0.172               -0.001701426       -1.839585
0.176               -0.001460248       -1.885252
0.18                -0.001234742        -1.93103
0.184               -0.001026452       -1.976913
0.188               -0.000835368       -2.022895
0.192              -0.0006635611       -2.068969
0.196              -0.0005105187        -2.11513
0.2                -0.0003752012       -2.161371
0.204              -0.0002628075       -2.207686
0.208              -0.0001686865       -2.254068
0.212              -9.441154e-05       -2.300509
0.216              -4.311133e-05       -2.347003
0.22                -1.11866e-05       -2.393544
0.224              -2.296011e-07       -2.440122
0.228              -1.182279e-05       -2.486733
0.232              -4.393702e-05       -2.533367
0.236              -9.661316e-05       -2.580019
0.24               -0.0001714502        -2.62668
0.244              -0.0002648777       -2.673344
0.248              -0.0003805663       -2.720004
0.252              -0.0005165076       -2.766653
0.256              -0.0006727563       -2.813284
0.26               -0.0008483346        -2.85989
0.264               -0.001041756       -2.906465
0.268               -0.001254636       -2.953003
0.272               -0.001483933       -2.999497
0.276               -0.001731266       -3.045942
0.28                -0.001995153       -3.092332
0.284               -0.002275135       -3.138662
0.288                 -0.0025687       -3.184926
0.292               -0.002876426       -3.231121
0.296               -0.003196829       -3.277241
0.3                 -0.003529453       -3.323283
0.304               -0.003872291       -3.369243
0.308               -0.004227476       -3.415118
0.312               -0.004588855       -3.460904
0.316               -0.004959585         -3.5066
0.32                -0.005336622       -3.552203
0.324                -0.00571897       -3.597711
0.328               -0.006106164       -3.643123
0.332               -0.006495136       -3.688439
0.336               -0.006887479       -3.733657
0.34                -0.007280107       -3.778779
0.344               -0.007673064       -3.823804
0.348               -0.008063261       -3.868733
0.352               -0.008451741       -3.913568
0.356               -0.008835416        -3.95831
0.36                -0.009214806       -4.002963
0.364               -0.009586799       -4.047528
0.368                -0.00995192       -4.092007
0.372                 -0.0103091       -4.136407
0.376                -0.01065522       -4.180729
0.38                 -0.01099181       -4.224979
0.384                 -0.0113152       -4.269161
0.388                -0.01162742       -4.313281
0.392                -0.01192481       -4.357344
0.396                -0.01220885       -4.401356
0.4                  -0.01247587       -4.445322
0.404                -0.01272631        -4.48925
0.408                -0.01296113       -4.533147
0.412                -0.01317662       -4.577019
0.416                -0.01337425       -4.620874
0.42                 -0.01355133       -4.664721
0.424                -0.01371087       -4.708566
0.428                -0.01384809       -4.752418
0.432                -0.01396651       -4.796285
0.436                -0.01406239       -4.840176
0.44                 -0.01413715       -4.884099
0.444                -0.01419118       -4.928064
0.448                 -0.0142228       -4.972077
0.452                -0.01423392       -5.016151
0.456                 -0.0142208       -5.060291
0.46                 -0.01418741       -5.104508
0.464                -0.01413153       -5.148811
0.468                -0.01405562       -5.193208
0.472                -0.01395742       -5.237709
0.476                -0.01383783       -5.282321
0.48                 -0.01369874       -5.327054
0.484                -0.01353844       -5.371916
0.488                -0.01335987       -5.416916
0.492                -0.01316131       -5.462061
0.496                 -0.0129452        -5.50736
0.5                  -0.01271084        -5.55282
0.504                -0.01245962       -5.598448
0.508                 -0.0121924       -5.644253
0.512                -0.01191109       -5.690242
0.516                -0.01161452       -5.736418
0.52                 -0.01130507       -5.782791
0.524                -0.01098418       -5.829364
0.528                -0.01065115       -5.876146
0.532                -0.01030896       -5.923138
0.536               -0.009956404       -5.970348
0.54                -0.009598017       -6.017779
0.544                -0.00923157       -6.065434
0.548               -0.008860572       -6.113318
0.552               -0.008485389       -6.161434
0.556               -0.008107999       -6.209783
0.56                -0.007729307       -6.258368
0.564               -0.007350746       -6.307192
0.568               -0.006972235       -6.356254
0.572               -0.006597794       -6.405556
0.576               -0.006225827       -6.455097
0.58                -0.005858789       -6.504878
0.584               -0.005500254       -6.554898
0.588               -0.005147575       -6.605156
0.592               -0.004803802       -6.655649
0.596               -0.004471978       -6.706378
0.6                 -0.004150026       -6.757336
0.604               -0.003842033       -6.808524
0.608               -0.003546953       -6.859936
0.612               -0.003267358        -6.91157
0.616               -0.003003239       -6.963421
0.62                -0.002755668       -7.015484
0.624               -0.002528779       -7.067756
0.628               -0.002317954       -7.120228
0.632               -0.002128912       -7.172898
0.636               -0.001960126        -7.22576
0.64                  -0.0018122       -7.278805
0.644               -0.001687804       -7.332027
0.648               -0.001585936        -7.38542
0.652               -0.001507201       -7.438977
0.656                -0.00145271       -7.492692
0.66                -0.001423589       -7.546557
0.664               -0.001418937       -7.600562
0.668               -0.001439875       -7.654703
0.672               -0.001486518       -7.708969
0.676               -0.001557961       -7.763354
0.68                -0.001656382        -7.81785
0.684               -0.001778816       -7.872448
0.688               -0.001927998       -7.927141
0.692               -0.002104582       -7.981921
0.696               -0.002305069       -8.036779
0.7                 -0.002530122       -8.091708
0.704               -0.002781965       -8.146701
0.708               -0.003057078       -8.201751
0.712                -0.00335621       -8.256848
0.716               -0.003679439       -8.311986
0.72                -0.004024869       -8.367159
0.724                -0.00439209       -8.422359
0.728                -0.00478231       -8.477581
0.732               -0.005190989       -8.532817
0.736               -0.005621353       -8.588063
0.74                -0.006069933       -8.643312
0.744               -0.006535767        -8.69856
0.748               -0.007019017         -8.7538
0.752               -0.007516637        -8.80903
0.756               -0.008029247       -8.864246
0.76                -0.008555383       -8.919444
0.764               -0.009094093       -8.974621
0.768               -0.009641848       -9.029771
0.772                -0.01020018       -9.084898
0.776                -0.01076662       -9.139995
0.78                 -0.01134006       -9.195065
0.784                -0.01191748       -9.250105
0.788                -0.01249996       -9.305114
0.792                -0.01308579       -9.360098
0.796                -0.01367197       -9.415052
0.8                  -0.01425791       -9.469978
0.804                -0.01484195        -9.52488
0.808                -0.01542302        -9.57976
0.812                -0.01599997       -9.634622
0.816                -0.01657162       -9.689471
0.82                 -0.01713537       -9.744306
0.824                -0.01769044       -9.799137
0.828                -0.01823572       -9.853966
0.832                -0.01877044       -9.908802
0.836                 -0.0192924       -9.963648
0.84                 -0.01980086       -10.01851
0.844                -0.02029507        -10.0734
0.848                 -0.0207727       -10.12832
0.852                -0.02123454       -10.18329
0.856                -0.02167769        -10.2383
0.86                 -0.02210246       -10.29338
0.864                -0.02250749       -10.34852
0.868                -0.02289239       -10.40374
0.872                 -0.0232558       -10.45904
0.876                -0.02359694       -10.51445
0.88                  -0.0239159       -10.56996
0.884                 -0.0242118       -10.62559
0.888                -0.02448477       -10.68136
0.892                -0.02473339       -10.73727
0.896                 -0.0249588       -10.79333
0.9                  -0.02515955       -10.84956
0.904                -0.02533576       -10.90596
0.908                -0.02548748       -10.96255
0.912                -0.02561535       -11.01934
0.916                -0.02571988       -11.07635
0.92                  -0.0258002       -11.13358
0.924                -0.02585684       -11.19105
0.928                 -0.0258909       -11.24877
0.932                -0.02590142       -11.30675
0.936                -0.02589103         -11.365
0.94                 -0.02585877       -11.42353
0.944                -0.02580627       -11.48235
0.948                -0.02573409       -11.54148
0.952                -0.02564378       -11.60093
0.956                -0.02553501        -11.6607
0.96                 -0.02540988       -11.72081
0.964                -0.02526949       -11.78126
0.968                -0.02511442       -11.84208
0.972                -0.02494689       -11.90325
0.976                  -0.024767        -11.9648
0.98                 -0.02457845       -12.02672
0.984                -0.02438035       -12.08904
0.988                -0.02417438       -12.15175
0.992                 -0.0239633       -12.21487
0.996                -0.02374886       -12.27839
1                     -0.0235306       -12.34233
1.004                -0.02331346       -12.40668
1.008                -0.02309563       -12.47146
1.012                -0.02288127       -12.53667
1.016                -0.02267036        -12.6023
1.02                 -0.02246769       -12.66837
1.024                -0.02227142       -12.73488
1.028                -0.02208504       -12.80182
1.032                -0.02190991        -12.8692
1.036                -0.02174786       -12.93702
1.04                 -0.02160182       -13.00528
1.044                -0.02147221       -13.07398
1.048                -0.02136057        -13.1431
1.052                -0.02127002       -13.21269
1.056                -0.02120052       -13.28269
1.06                 -0.02115493       -13.35309
1.064                -0.02113336       -13.42396
1.068                -0.02113898       -13.49521
1.072                -0.02117282        -13.5669
1.076                -0.02123672         -13.639
1.08                 -0.02132951       -13.71151
1.084                -0.02145569       -13.78443
1.088                -0.02161555       -13.85773
1.092                -0.02180948       -13.93139
1.096                -0.02203889       -14.00546
1.1                  -0.02230475        -14.0799
1.104                -0.02260882       -14.15468
1.108                -0.02295163       -14.22987
1.112                -0.02333244       -14.30536
1.116                -0.02375328        -14.3812
1.12                  -0.0242149       -14.45737
1.124                -0.02471732       -14.53384
1.128                -0.02526178       -14.61066
1.132                -0.02584723       -14.68776
1.136                -0.02647401       -14.76516
1.14                 -0.02714272       -14.84284
1.144                 -0.0278546        -14.9208
1.148                -0.02860702       -14.99902
1.152                -0.02940011        -15.0775
1.156                 -0.0302357       -15.15622
1.16                 -0.03111198       -15.23519
1.164                -0.03202918       -15.31438
1.168                -0.03298599        -15.3938
1.172                -0.03398208       -15.47343
1.176                -0.03501474       -15.55327
1.18                 -0.03608751       -15.63331
1.184                -0.03719513       -15.71354
1.188                 -0.0383387       -15.79395
1.192                -0.03951641       -15.87454
1.196                -0.04072782       -15.95531
1.2                  -0.04197033       -16.03625
1.204                -0.04324328       -16.11735
1.208                -0.04454595       -16.19861
1.212                -0.04587633       -16.28003
1.216                -0.04723262        -16.3616
1.22                  -0.0486129       -16.44333
1.224                -0.05001694        -16.5252
1.228                -0.05144238       -16.60723
1.232                -0.05288649        -16.6894
1.236                -0.05434854       -16.77173
1.24                 -0.05582604       -16.85421
1.244                -0.05731836       -16.93685
1.248                -0.05882287       -17.01964
1.252                -0.06033823       -17.10259
1.256                -0.06186225       -17.18572
1.26                 -0.06339177       -17.26901
1.264                -0.06492837       -17.35249
1.268                -0.06646701       -17.43615
1.272                -0.06800752          -17.52
1.276                -0.06954722       -17.60406
1.28                 -0.07108594       -17.68832
1.284                -0.07262035       -17.77281
1.288                -0.07415014       -17.85754
1.292                 -0.0756728        -17.9425
1.296                -0.07718718       -18.02773
1.3                  -0.07869263       -18.11323
1.304                -0.08018658       -18.19901
1.308                -0.08166721       -18.28509
1.312                -0.08313579        -18.3715
1.316                -0.08458889       -18.45823
1.32                 -0.08602768       -18.54531
1.324                -0.08744878       -18.63275
1.328                -0.08885316       -18.72057
1.332                -0.09023971        -18.8088
1.336                -0.09160804       -18.89745
1.34                   -0.092957       -18.98654
1.344                -0.09428659       -19.07608
1.348                -0.09559668       -19.16611
1.352                -0.09688862       -19.25664
1.356                -0.09815962       -19.34768
1.36                 -0.09941179       -19.43927
1.364                 -0.1006455       -19.53141
1.368                 -0.1018603       -19.62414
1.372                 -0.1030566       -19.71747
1.376                 -0.1042363       -19.81143
1.38                  -0.1054003       -19.90604
1.384                  -0.106549       -20.00131
1.388                 -0.1076827       -20.09727
1.392                 -0.1088053       -20.19394
1.396                 -0.1099154       -20.29134
1.4                   -0.1110154       -20.38949
1.404                 -0.1121083       -20.48841
1.408                 -0.1131939       -20.58813
1.412                  -0.114276       -20.68866
1.416                 -0.1153559       -20.79002
1.42                  -0.1164358       -20.89222
1.424                  -0.117518       -20.99529
1.428                 -0.1186053       -21.09925
1.432                 -0.1196992       -21.20411
1.436                 -0.1208034       -21.30989
1.44                  -0.1219207       -21.41661
1.444                 -0.1230527       -21.52427
1.448                  -0.124203        -21.6329
1.452                 -0.1253747       -21.74252
1.456                 -0.1265719       -21.85312
1.46                  -0.1277962       -21.96472
1.464                 -0.1290512       -22.07735
1.468                 -0.1303403         -22.191
1.472                 -0.1316664       -22.30569
1.476                 -0.1330335       -22.42142
1.48                  -0.1344441       -22.53821
1.484                 -0.1359032       -22.65606
1.488                 -0.1374128       -22.77498
1.492                  -0.138976       -22.89497
1.496                 -0.1405977       -23.01605
1.5                   -0.1422798       -23.13821
1.504                 -0.1440267       -23.26145
1.508                 -0.1458411       -23.38579
1.512                 -0.1477271       -23.51122
1.516                 -0.1496881       -23.63774
1.52                  -0.1517264       -23.76535
1.524                 -0.1538452       -23.89405
1.528                 -0.1560486       -24.02384
1.532                 -0.1583387       -24.15473
1.536                 -0.1607201       -24.28669
1.54                  -0.1631938       -24.41974
1.544                 -0.1657647       -24.55387
1.548                 -0.1684338       -24.68907
1.552                 -0.1712043       -24.82534
1.556                 -0.1740793       -24.96267
1.56                  -0.1770609       -25.10107
1.564                  -0.180152        -25.2405
1.568                 -0.1833541       -25.38099
1.572                 -0.1866687        -25.5225
1.576                  -0.190099       -25.66505
1.58                  -0.1936467       -25.80862
1.584                 -0.1973141        -25.9532
1.588                 -0.2011017       -26.09879
1.592                 -0.2050106       -26.24537
1.596                 -0.2090439       -26.39294
1.6                   -0.2132013        -26.5415
1.604                 -0.2174849       -26.69103
1.608                 -0.2218958       -26.84153
1.612                 -0.2264327       -26.99299
1.616                 -0.2310988        -27.1454
1.62                  -0.2358941       -27.29876
1.624                 -0.2408178       -27.45306
1.628                 -0.2458707       -27.60829
1.632                  -0.251054       -27.76446
1.636                 -0.2563664       -27.92155
1.64                  -0.2618091       -28.07957
1.644                 -0.2673803       -28.23851
1.648                  -0.273081       -28.39837
1.652                 -0.2789102       -28.55915
1.656                 -0.2848673       -28.72084
1.66                  -0.2909514       -28.88345
1.664                 -0.2971624       -29.04699
1.668                 -0.3034985       -29.21145
1.672                 -0.3099611       -29.37684
1.676                 -0.3165467       -29.54317
1.68                  -0.3232554       -29.71043
1.684                 -0.3300864       -29.87865
1.688                 -0.3370383       -30.04784
1.692                 -0.3441109       -30.21799
1.696                 -0.3513009       -30.38913
1.7                   -0.3586099       -30.56126
1.704                 -0.3660343       -30.73441
1.708                 -0.3735748        -30.9086
1.712                 -0.3812306       -31.08383
1.716                 -0.3890001       -31.26014
1.72                  -0.3968798       -31.43754
1.724                 -0.4048734       -31.61606
1.728                 -0.4129775       -31.79573
1.732                 -0.4211905       -31.97656
1.736                 -0.4295148       -32.15859
1.74                   -0.437947       -32.34186
1.744                 -0.4464892       -32.52637
1.748                 -0.4551381       -32.71219
1.752                 -0.4638978       -32.89935
1.756                  -0.472765       -33.08787
1.76                  -0.4817423        -33.2778
1.764                 -0.4908285       -33.46918
1.768                 -0.5000258       -33.66205
1.772                 -0.5093329       -33.85644
1.776                 -0.5187547       -34.05242
1.78                  -0.5282905       -34.25003
1.784                 -0.5379432       -34.44931
1.788                 -0.5477129       -34.65031
1.792                 -0.5576048       -34.85308
1.796                 -0.5676178       -35.05768
1.8                   -0.5777588       -35.26416
1.804                 -0.5880288       -35.47257
1.808                 -0.5984326       -35.68297
1.812                 -0.6089747       -35.89541
1.816                 -0.6196587       -36.10995
1.82                  -0.6304876       -36.32665
1.824                 -0.6414703       -36.54556
1.828                 -0.6526107       -36.76675
1.832                 -0.6639148       -36.99029
1.836                  -0.675388       -37.21621
1.84                  -0.6870391        -37.4446
1.844                 -0.6988721        -37.6755
1.848                 -0.7108981       -37.90898
1.852                 -0.7231246       -38.14511
1.856                 -0.7355601       -38.38394
1.86                  -0.7482105       -38.62553
1.864                 -0.7610895       -38.86996
1.868                 -0.7742049       -39.11726
1.872                 -0.7875666       -39.36752
1.876                 -0.8011862       -39.62078
1.88                  -0.8150739       -39.87711
1.884                 -0.8292421       -40.13658
1.888                 -0.8437048       -40.39923
1.892                 -0.8584702       -40.66512
1.896                 -0.8735556       -40.93432
1.9                    -0.888973       -41.20688
1.904                 -0.9047345       -41.48285
1.908                 -0.9208578       -41.76229
1.912                 -0.9373544       -42.04525
1.916                 -0.9542401       -42.33178
1.92                  -0.9715325       -42.62194
1.924                 -0.9892469       -42.91578
1.928                  -1.007398       -43.21333
1.932                  -1.026005       -43.51465
1.936                  -1.045083       -43.81978
1.94                   -1.064652       -44.12877
1.944                   -1.08473       -44.44166
1.948                  -1.105333       -44.75849
1.952                  -1.126484       -45.07929
1.956                  -1.148198       -45.40411
1.96                   -1.170498       -45.73298
1.964                  -1.193403       -46.06592
1.968                  -1.216932       -46.40299
1.972                  -1.241109       -46.74421
1.976                  -1.265953       -47.08958
1.98                   -1.291485       -47.43916
1.984                   -1.31773       -47.79297
1.988                  -1.344707       -48.15101
1.992                  -1.372442       -48.51333
1.996                  -1.400955       -48.87993
2                      -1.430272       -49.25083
2.004                  -1.460416       -49.62605
2.008                   -1.49141       -50.00561
2.012                   -1.52328       -50.38951
2.016                   -1.55605       -50.77775
2.02                   -1.589746       -51.17037
2.024                  -1.624397       -51.56736
2.028                  -1.660021       -51.96871
2.032                  -1.696652       -52.37445
2.036                  -1.734313       -52.78455
2.04                   -1.773035       -53.19906
2.044                  -1.812841       -53.61793
2.048                  -1.853762       -54.04119
2.052                  -1.895827        -54.4688
2.056                  -1.939064        -54.9008
2.06                   -1.983503       -55.33715
2.064                  -2.029174       -55.77786
2.068                  -2.076107        -56.2229
2.072                  -2.124335       -56.67228
2.076                  -2.173887       -57.12599
2.08                   -2.224797         -57.584
2.084                  -2.277097       -58.04631
2.088                  -2.330821        -58.5129
2.092                  -2.386003       -58.98377
2.096                  -2.442677       -59.45888
2.1                    -2.500879       -59.93822
2.104                  -2.560647       -60.42179
2.108                  -2.622015       -60.90956
2.112                  -2.685022        -61.4015
2.116                  -2.749707       -61.89761
2.12                   -2.816109       -62.39787
2.124                   -2.88427       -62.90225
2.128                   -2.95423       -63.41075
2.132                  -3.026034       -63.92331
2.136                  -3.099724       -64.43997
2.14                   -3.175345       -64.96068
2.144                  -3.252942        -65.4854
2.148                  -3.332567       -66.01416
2.152                  -3.414264        -66.5469
2.156                  -3.498088       -67.08364
2.16                   -3.584088       -67.62432
2.164                   -3.67232       -68.16897
2.168                  -3.762838       -68.71756
2.172                  -3.855702       -69.27007
2.176                   -3.95097       -69.82648
2.18                   -4.048703        -70.3868
2.184                  -4.148968       -70.95103
2.188                  -4.251829       -71.51914
2.192                  -4.357356       -72.09113
2.196                  -4.465623       -72.66703
2.2                    -4.576703       -73.24682
2.204                  -4.690674        -73.8305
2.208                   -4.80762       -74.41808
2.212                  -4.927624       -75.00958
2.216                  -5.050774       -75.60501
2.22                   -5.177169       -76.20442
2.224                  -5.306903        -76.8078
2.228                  -5.440079       -77.41519
2.232                  -5.576805       -78.02664
2.236                  -5.717196       -78.64221
2.24                   -5.861371       -79.26192
2.244                  -6.009456       -79.88585
2.248                  -6.161583       -80.51406
2.252                  -6.317897       -81.14665
2.256                  -6.478544       -81.78371
2.26                   -6.643684       -82.42531
2.264                  -6.813483       -83.07163
2.268                   -6.98812       -83.72275
2.272                  -7.167787       -84.37885
2.276                  -7.352686        -85.0401
2.28                   -7.543032       -85.70667
2.284                   -7.73906       -86.37882
2.288                  -7.941017       -87.05678
2.292                   -8.14917       -87.74081
2.296                  -8.363807       -88.43125
2.3                    -8.585237       -89.12843
2.304                  -8.813796       -89.83276
2.308                  -9.049845       -90.54471
2.312                  -9.293779       -91.26478
2.316                  -9.546023       -91.99355
2.32                   -9.807047       -92.73168
2.324                  -10.07736       -93.47995
2.328                  -10.35752       -94.23919
2.332                  -10.64814       -95.01045
2.336                   -10.9499       -95.79483
2.34                   -11.26355       -96.59369
2.344                  -11.58992       -97.40853
2.348                  -11.92995       -98.24122
2.352                  -12.28466       -99.09379
2.356                  -12.65524       -99.96878
2.36                   -13.04299       -100.8691
2.364                  -13.44941       -101.7983
2.368                  -13.87621       -102.7606
2.372                  -14.32533       -103.7612
2.376                  -14.79904       -104.8063
2.38                   -15.29995       -105.9036
2.384                  -15.83112       -107.0629
2.388                  -16.39614       -108.2965
2.392                   -16.9993       -109.6199
2.396                  -17.64571       -111.0537
2.4                    -18.34154       -112.6249
2.404                  -19.09432       -114.3698