! TOUCHSTONE file generated by CST MICROWAVE STUDIO
! Date and time: Fri May  6 15:38:53 2022
! Project name: ant1_ceramic_sweep_fr4.cst
! Parameters = {e=0.035; h=1.6; i=0.808; l1=0.5; l2=20.96; ls=80; wl=1.7; ws=30}
! Header version: 2018
! Port assignment regex: !\s*Touchstone port\s*([0-9]+)\s*=\s*(CST MWS port|CST DS port)\s*([0-9]+|Zmin|Zmax)\s*\(\"(.*)\"\)(\s*mode\s*([0-9]+))?.*
! Touchstone port assignment:
! Touchstone port 1 = CST MWS port 1 ("")
# GHz S DB R 50
0                    -0.01389583              -0
0.004                -0.01388535     -0.04054831
0.008                -0.01385394     -0.08110508
0.012                -0.01379949      -0.1216788
0.016                -0.01372409      -0.1622777
0.02                 -0.01362772      -0.2029103
0.024                -0.01351036      -0.2435846
0.028                -0.01337302      -0.2843089
0.032                 -0.0132157      -0.3250911
0.036                -0.01303784      -0.3659388
0.04                 -0.01284201      -0.4068599
0.044                -0.01262662      -0.4478616
0.048                -0.01239474      -0.4889509
0.052                -0.01214531      -0.5301349
0.056                -0.01188087      -0.5714203
0.06                 -0.01159982      -0.6128132
0.064                -0.01130472      -0.6543198
0.068                  -0.010995      -0.6959456
0.072                -0.01067372      -0.7376962
0.076                -0.01034082      -0.7795763
0.08                -0.009996775      -0.8215907
0.084               -0.009643604      -0.8637435
0.088               -0.009282287      -0.9060387
0.092               -0.008913286      -0.9484797
0.096               -0.008537582      -0.9910692
0.1                 -0.008156671        -1.03381
0.104               -0.007773604       -1.076705
0.108                -0.00738729       -1.119755
0.112               -0.006998705       -1.162961
0.116               -0.006610904       -1.206325
0.12                 -0.00622331       -1.249846
0.124               -0.005837943       -1.293525
0.128               -0.005456302       -1.337362
0.132               -0.005079372       -1.381355
0.136               -0.004709175       -1.425502
0.14                -0.004344625       -1.469804
0.144               -0.003988269       -1.514256
0.148               -0.003640579       -1.558856
0.152               -0.003305141       -1.603603
0.156               -0.002979328       -1.648491
0.16                -0.002666212       -1.693518
0.164                 -0.0023668       -1.738679
0.168               -0.002081581       -1.783969
0.172               -0.001810531       -1.829385
0.176               -0.001557775        -1.87492
0.18                -0.001319666        -1.92057
0.184               -0.001099826       -1.966328
0.188               -0.000899797       -2.012188
0.192              -0.0007175044       -2.058145
0.196              -0.0005534658       -2.104192
0.2                -0.0004123505       -2.150322
0.204              -0.0002905435       -2.196529
0.208              -0.0001885775       -2.242804
0.212              -0.0001095766       -2.289142
0.216               -5.09804e-05       -2.335535
0.22               -1.488327e-05       -2.381975
0.224              -2.833291e-07       -2.428455
0.228              -8.254546e-06       -2.474968
0.232              -3.728311e-05       -2.521506
0.236              -8.948248e-05       -2.568061
0.24               -0.0001633495       -2.614627
0.244              -0.0002579023       -2.661195
0.248              -0.0003747427       -2.707759
0.252              -0.0005123795       -2.754311
0.256              -0.0006708766       -2.800844
0.26               -0.0008502894       -2.847351
0.264               -0.001048617       -2.893826
0.268               -0.001266958       -2.940261
0.272               -0.001502795       -2.986651
0.276               -0.001757231       -3.032989
0.28                 -0.00202827       -3.079269
0.284               -0.002315973       -3.125486
0.288               -0.002619382       -3.171635
0.292               -0.002937009       -3.217711
0.296               -0.003268411       -3.263708
0.3                 -0.003612101       -3.309623
0.304               -0.003968139       -3.355452
0.308               -0.004334527       -3.401192
0.312               -0.004710293       -3.446838
0.316               -0.005093936       -3.492388
0.32                -0.005485515       -3.537841
0.324               -0.005882494       -3.583194
0.328               -0.006284922       -3.628446
0.332               -0.006689739       -3.673596
0.336               -0.007097503       -3.718643
0.34                -0.007506175       -3.763587
0.344               -0.007915271       -3.808428
0.348               -0.008323257       -3.853169
0.352               -0.008727573       -3.897808
0.356               -0.009128743       -3.942349
0.36                -0.009525227       -3.986794
0.364               -0.009914425       -4.031145
0.368                -0.01029686       -4.075405
0.372                -0.01067045       -4.119578
0.376                -0.01103464       -4.163669
0.38                 -0.01138683        -4.20768
0.384                -0.01172854       -4.251618
0.388                 -0.0120561       -4.295487
0.392                -0.01236998       -4.339293
0.396                -0.01266754       -4.383041
0.4                  -0.01295027       -4.426739
0.404                -0.01321707       -4.470394
0.408                -0.01346475       -4.514011
0.412                -0.01369477       -4.557599
0.416                -0.01390551       -4.601165
0.42                 -0.01409635       -4.644716
0.424                 -0.0142677       -4.688262
0.428                -0.01441634       -4.731809
0.432                -0.01454475       -4.775368
0.436                -0.01465073       -4.818946
0.44                 -0.01473573       -4.862552
0.444                -0.01479753       -4.906196
0.448                 -0.0148365       -4.949886
0.452                -0.01485355       -4.993632
0.456                -0.01484802       -5.037443
0.46                 -0.01482025       -5.081329
0.464                -0.01476805       -5.125296
0.468                -0.01469486       -5.169358
0.472                -0.01459899        -5.21352
0.476                -0.01448232       -5.257793
0.48                 -0.01434368       -5.302186
0.484                 -0.0141834       -5.346707
0.488                -0.01400235       -5.391365
0.492                -0.01380193       -5.436169
0.496                -0.01358194       -5.481126
0.5                  -0.01334378       -5.526246
0.504                -0.01308832       -5.571536
0.508                -0.01281591       -5.617001
0.512                -0.01252688       -5.662652
0.516                -0.01222265       -5.708494
0.52                  -0.0119051       -5.754533
0.524                -0.01157406       -5.800776
0.528                -0.01123096       -5.847229
0.532                -0.01087613       -5.893896
0.536                -0.01051358       -5.940784
0.54                  -0.0101416       -5.987896
0.544               -0.009763162       -6.035237
0.548               -0.009377589       -6.082811
0.552               -0.008988918        -6.13062
0.556                -0.00859596       -6.178668
0.56                -0.008200182       -6.226956
0.564               -0.007806094       -6.275487
0.568               -0.007411031       -6.324261
0.572               -0.007017976       -6.373281
0.576               -0.006630477       -6.422546
0.58                 -0.00624377       -6.472055
0.584               -0.005866093       -6.521809
0.588               -0.005495791       -6.571807
0.592               -0.005134921       -6.622046
0.596               -0.004782876       -6.672524
0.6                 -0.004442214       -6.723241
0.604               -0.004113943       -6.774191
0.608               -0.003799616       -6.825371
0.612               -0.003500727        -6.87678
0.616               -0.003218848       -6.928412
0.62                -0.002953479       -6.980262
0.624                -0.00270669       -7.032326
0.628               -0.002476959       -7.084596
0.632               -0.002270019        -7.13707
0.636               -0.002084364        -7.18974
0.64                -0.001919502         -7.2426
0.644               -0.001778126       -7.295643
0.648               -0.001659245       -7.348862
0.652               -0.001565005        -7.40225
0.656               -0.001496065       -7.455798
0.66                 -0.00145143       -7.509501
0.664               -0.001432727       -7.563352
0.668               -0.001439654       -7.617338
0.672               -0.001474309       -7.671457
0.676               -0.001534245       -7.725698
0.68                -0.001620132       -7.780051
0.684               -0.001734186        -7.83451
0.688               -0.001875462       -7.889068
0.692               -0.002042082       -7.943714
0.696                -0.00223571       -7.998441
0.7                 -0.002454425       -8.053241
0.704               -0.002699973       -8.108105
0.708               -0.002970882       -8.163027
0.712               -0.003267372       -8.217998
0.716               -0.003587505        -8.27301
0.72                -0.003932478       -8.328056
0.724               -0.004299794       -8.383131
0.728               -0.004690697       -8.438225
0.732               -0.005102717       -8.493333
0.736               -0.005533404       -8.548448
0.74                -0.005987034       -8.603567
0.744               -0.006457008        -8.65868
0.748               -0.006946051       -8.713784
0.752                -0.00745163       -8.768876
0.756               -0.007972871       -8.823949
0.76                -0.008507284       -8.878998
0.764               -0.009055437       -8.934024
0.768               -0.009615297       -8.989023
0.772                -0.01018549       -9.043988
0.776                -0.01076442       -9.098922
0.78                 -0.01135113       -9.153821
0.784                -0.01194356       -9.208684
0.788                -0.01254171       -9.263513
0.792                -0.01314248       -9.318306
0.796                -0.01374584       -9.373066
0.8                  -0.01434919       -9.427791
0.804                -0.01495092       -9.482484
0.808                -0.01555095       -9.537149
0.812                -0.01614611       -9.591786
0.816                 -0.0167373       -9.646402
0.82                 -0.01732136       -9.700998
0.824                -0.01789651       -9.755581
0.828                -0.01846267       -9.810155
0.832                -0.01901811       -9.864725
0.836                -0.01956158       -9.919299
0.84                 -0.02009135       -9.973881
0.844                -0.02060617       -10.02848
0.848                -0.02110523        -10.0831
0.852                -0.02158782       -10.13776
0.856                -0.02205315       -10.19246
0.86                 -0.02249778        -10.2472
0.864                -0.02292351       -10.30201
0.868                -0.02332845       -10.35688
0.872                -0.02371231       -10.41184
0.876                -0.02407315       -10.46688
0.88                 -0.02441112       -10.52203
0.884                 -0.0247264       -10.57728
0.888                -0.02501653       -10.63266
0.892                -0.02528266       -10.68817
0.896                -0.02552434       -10.74383
0.9                  -0.02574122       -10.79965
0.904                -0.02593286       -10.85564
0.908                -0.02609983       -10.91181
0.912                 -0.0262407       -10.96817
0.916                -0.02635652       -11.02474
0.92                 -0.02644786       -11.08153
0.924                -0.02651488       -11.13854
0.928                -0.02655807        -11.1958
0.932                -0.02657748       -11.25332
0.936                -0.02657322        -11.3111
0.94                 -0.02654638       -11.36916
0.944                -0.02649897       -11.42751
0.948                -0.02643011       -11.48617
0.952                -0.02634142       -11.54513
0.956                -0.02623342       -11.60442
0.96                 -0.02610825       -11.66404
0.964                -0.02596601         -11.724
0.968                -0.02580726       -11.78432
0.972                -0.02563528         -11.845
0.976                -0.02545106       -11.90605
0.98                  -0.0252538       -11.96749
0.984                -0.02504716       -12.02931
0.988                -0.02483232       -12.09152
0.992                 -0.0246104       -12.15414
0.996                -0.02438273       -12.21717
1                    -0.02415185       -12.28062
1.004                -0.02391816       -12.34448
1.008                -0.02368536       -12.40878
1.012                -0.02345417        -12.4735
1.016                 -0.0232249       -12.53865
1.02                 -0.02300233       -12.60425
1.024                -0.02278635       -12.67028
1.028                -0.02257766       -12.73675
1.032                -0.02238127       -12.80367
1.036                -0.02219595       -12.87103
1.04                 -0.02202513       -12.93883
1.044                -0.02187025       -13.00708
1.048                -0.02173244       -13.07579
1.052                 -0.0216144       -13.14491
1.056                -0.02151861       -13.21444
1.06                 -0.02144516       -13.28446
1.064                 -0.0213957        -13.3549
1.068                -0.02137277       -13.42576
1.072                -0.02137765       -13.49704
1.076                 -0.0214107       -13.56873
1.08                 -0.02147491       -13.64083
1.084                -0.02157169       -13.71337
1.088                -0.02170024       -13.78629
1.092                 -0.0218642       -13.85962
1.096                 -0.0220638       -13.93333
1.1                  -0.02230044        -14.0074
1.104                -0.02257449       -14.08185
1.108                -0.02288696       -14.15665
1.112                -0.02323963       -14.23181
1.116                -0.02363142       -14.30732
1.12                 -0.02406535       -14.38319
1.124                -0.02453963       -14.45936
1.128                -0.02505702       -14.53584
1.132                -0.02561492       -14.61264
1.136                -0.02621644       -14.68974
1.14                 -0.02686137       -14.76713
1.144                -0.02754864        -14.8448
1.148                -0.02827785       -14.92274
1.152                -0.02905026       -15.00094
1.156                -0.02986475       -15.07939
1.16                 -0.03072083       -15.15808
1.164                 -0.0316196       -15.23701
1.168                -0.03255938       -15.31616
1.172                -0.03353814       -15.39553
1.176                -0.03455756        -15.4751
1.18                 -0.03561579       -15.55488
1.184                -0.03671158       -15.63485
1.188                -0.03784447         -15.715
1.192                -0.03901328       -15.79533
1.196                -0.04021578       -15.87584
1.2                  -0.04145195       -15.95652
1.204                 -0.0427212       -16.03735
1.208                -0.04402059       -16.11835
1.212                -0.04534869       -16.19949
1.216                -0.04670471       -16.28079
1.22                 -0.04808658       -16.36223
1.224                -0.04949272       -16.44383
1.228                -0.05092241       -16.52556
1.232                 -0.0523723       -16.60744
1.236                -0.05384231       -16.68947
1.24                 -0.05532857       -16.77164
1.244                -0.05683093       -16.85395
1.248                -0.05834709       -16.93642
1.252                -0.05987524       -17.01903
1.256                -0.06141292       -17.10181
1.26                 -0.06295916       -17.18475
1.264                -0.06451157       -17.26785
1.268                -0.06606816       -17.35113
1.272                -0.06762664       -17.43459
1.276                -0.06918788       -17.51824
1.28                 -0.07074678       -17.60209
1.284                 -0.0723033       -17.68615
1.288                -0.07385526       -17.77043
1.292                -0.07540098       -17.85493
1.296                -0.07694057       -17.93968
1.3                   -0.0784696       -18.02469
1.304                -0.07998856       -18.10997
1.308                -0.08149581       -18.19552
1.312                -0.08299017       -18.28139
1.316                 -0.0844692       -18.36756
1.32                 -0.08593327       -18.45406
1.324                 -0.0873815       -18.54092
1.328                 -0.0888114       -18.62814
1.332                -0.09022378       -18.71574
1.336                 -0.0916172       -18.80374
1.34                 -0.09299168       -18.89218
1.344                 -0.0943455       -18.98104
1.348                -0.09568013       -19.07037
1.352                -0.09699438       -19.16019
1.356                -0.09828884        -19.2505
1.36                 -0.09956263       -19.34134
1.364                 -0.1008156       -19.43272
1.368                 -0.1020499       -19.52466
1.372                 -0.1032655        -19.6172
1.376                 -0.1044615       -19.71034
1.38                  -0.1056401       -19.80411
1.384                 -0.1068025       -19.89854
1.388                 -0.1079483       -19.99363
1.392                 -0.1090809       -20.08942
1.396                 -0.1102002       -20.18592
1.4                   -0.1113065       -20.28317
1.404                 -0.1124038       -20.38116
1.408                 -0.1134931       -20.47994
1.412                 -0.1145753       -20.57951
1.416                 -0.1156531        -20.6799
1.42                  -0.1167292       -20.78113
1.424                  -0.117805       -20.88321
1.428                 -0.1188838       -20.98617
1.432                 -0.1199662       -21.09002
1.436                 -0.1210566       -21.19478
1.44                  -0.1221568       -21.30046
1.444                 -0.1232704       -21.40708
1.448                 -0.1243993       -21.51467
1.452                 -0.1255473       -21.62322
1.456                 -0.1267176       -21.73276
1.46                  -0.1279131        -21.8433
1.464                 -0.1291355       -21.95484
1.468                   -0.13039       -22.06742
1.472                 -0.1316788       -22.18102
1.476                 -0.1330066       -22.29566
1.48                  -0.1343744       -22.41136
1.484                 -0.1357873       -22.52812
1.488                 -0.1372496       -22.64594
1.492                 -0.1387624       -22.76484
1.496                  -0.140331       -22.88482
1.5                   -0.1419573       -23.00588
1.504                 -0.1436473       -23.12803
1.508                 -0.1454009       -23.25127
1.512                 -0.1472246       -23.37561
1.516                 -0.1491203       -23.50104
1.52                  -0.1510921       -23.62756
1.524                 -0.1531419       -23.75518
1.528                 -0.1552737       -23.88389
1.532                 -0.1574922        -24.0137
1.536                 -0.1597974       -24.14459
1.54                   -0.162196       -24.27658
1.544                 -0.1646875       -24.40964
1.548                 -0.1672778       -24.54378
1.552                 -0.1699666         -24.679
1.556                  -0.172759       -24.81529
1.56                  -0.1756565       -24.95263
1.564                 -0.1786629       -25.09103
1.568                 -0.1817776       -25.23049
1.572                 -0.1850061       -25.37098
1.576                 -0.1883497       -25.51251
1.58                  -0.1918081       -25.65506
1.584                 -0.1953863       -25.79864
1.588                 -0.1990846       -25.94322
1.592                 -0.2029046       -26.08881
1.596                 -0.2068483       -26.23539
1.6                   -0.2109153       -26.38295
1.604                  -0.215108        -26.5315
1.608                 -0.2194297       -26.68102
1.612                 -0.2238771       -26.83149
1.616                 -0.2284539       -26.98293
1.62                  -0.2331601       -27.13531
1.624                 -0.2379956       -27.28864
1.628                 -0.2429623        -27.4429
1.632                  -0.248058       -27.59809
1.636                 -0.2532849       -27.75421
1.64                  -0.2586414       -27.91125
1.644                 -0.2641285        -28.0692
1.648                 -0.2697465       -28.22807
1.652                 -0.2754934       -28.38786
1.656                 -0.2813702       -28.54856
1.66                  -0.2873748       -28.71017
1.664                 -0.2935085       -28.87269
1.668                 -0.2997689       -29.03613
1.672                 -0.3061561       -29.20048
1.676                 -0.3126684       -29.36576
1.68                  -0.3193047       -29.53197
1.684                 -0.3260659       -29.69911
1.688                 -0.3329482        -29.8672
1.692                 -0.3399541       -30.03625
1.696                 -0.3470785       -30.20626
1.7                   -0.3543219       -30.37725
1.704                 -0.3616839       -30.54923
1.708                 -0.3691632       -30.72222
1.712                 -0.3767575       -30.89623
1.716                  -0.384467        -31.0713
1.72                  -0.3922904       -31.24743
1.724                 -0.4002264       -31.42464
1.728                 -0.4082735       -31.60297
1.732                 -0.4164329       -31.78243
1.736                 -0.4247023       -31.96306
1.74                   -0.433081       -32.14489
1.744                 -0.4415695       -32.32794
1.748                 -0.4501659       -32.51224
1.752                 -0.4588727       -32.69784
1.756                 -0.4676873       -32.88477
1.76                  -0.4766101       -33.07305
1.764                 -0.4856433       -33.26274
1.768                 -0.4947863       -33.45389
1.772                 -0.5040399        -33.6465
1.776                 -0.5134051       -33.84066
1.78                  -0.5228836       -34.03639
1.784                 -0.5324765       -34.23374
1.788                 -0.5421863       -34.43275
1.792                 -0.5520137       -34.63349
1.796                 -0.5619622       -34.83601
1.8                   -0.5720345       -35.04033
1.804                 -0.5822341       -35.24654
1.808                 -0.5925632       -35.45467
1.812                 -0.6030256       -35.66478
1.816                 -0.6136266       -35.87694
1.82                  -0.6243706        -36.0912
1.824                 -0.6352605       -36.30761
1.828                 -0.6463037       -36.52624
1.832                 -0.6575049       -36.74714
1.836                 -0.6688715       -36.97037
1.84                  -0.6804068         -37.196
1.844                 -0.6921204       -37.42408
1.848                 -0.7040186       -37.65468
1.852                 -0.7161095       -37.88785
1.856                 -0.7284016       -38.12366
1.86                   -0.740902       -38.36218
1.864                 -0.7536205       -38.60345
1.868                 -0.7665667       -38.84754
1.872                 -0.7797504       -39.09452
1.876                 -0.7931828       -39.34445
1.88                  -0.8068733       -39.59738
1.884                 -0.8208341       -39.85337
1.888                 -0.8350767       -40.11248
1.892                 -0.8496145       -40.37478
1.896                 -0.8644554       -40.64032
1.9                   -0.8796186       -40.90915
1.904                 -0.8951145       -41.18135
1.908                 -0.9109559       -41.45694
1.912                 -0.9271591       -41.73599
1.916                  -0.943739       -42.01856
1.92                  -0.9607098       -42.30469
1.924                  -0.978088       -42.59445
1.928                 -0.9958894       -42.88786
1.932                   -1.01413         -43.185
1.936                  -1.032828       -43.48588
1.94                   -1.051999       -43.79056
1.944                  -1.071663       -44.09909
1.948                  -1.091836       -44.41151
1.952                  -1.112538       -44.72786
1.956                  -1.133787       -45.04816
1.96                   -1.155604       -45.37247
1.964                  -1.178006       -45.70082
1.968                  -1.201016       -46.03324
1.972                  -1.224652       -46.36975
1.976                  -1.248937       -46.71039
1.98                   -1.273891       -47.05519
1.984                  -1.299538       -47.40417
1.988                  -1.325895       -47.75735
1.992                   -1.35299       -48.11476
1.996                  -1.380842       -48.47641
2                      -1.409476       -48.84233
2.004                  -1.438914       -49.21253
2.008                   -1.46918       -49.58704
2.012                  -1.500301       -49.96584
2.016                  -1.532298       -50.34897
2.02                   -1.565197       -50.73643
2.024                  -1.599026       -51.12822
2.028                  -1.633806       -51.52436
2.032                  -1.669567       -51.92484
2.036                  -1.706334       -52.32968
2.04                   -1.744135       -52.73888
2.044                  -1.782994        -53.1524
2.048                  -1.822943       -53.57029
2.052                  -1.864007       -53.99252
2.056                  -1.906218        -54.4191
2.06                   -1.949602          -54.85
2.064                  -1.994187       -55.28523
2.068                  -2.040009       -55.72479
2.072                  -2.087094       -56.16864
2.076                  -2.135473       -56.61678
2.08                    -2.18518       -57.06923
2.084                  -2.236246       -57.52593
2.088                  -2.288702        -57.9869
2.092                  -2.342584        -58.4521
2.096                  -2.397926       -58.92153
2.1                     -2.45476       -59.39517
2.104                  -2.513124       -59.87298
2.108                  -2.573054       -60.35499
2.112                  -2.634587       -60.84113
2.116                   -2.69776       -61.33142
2.12                   -2.762611       -61.82582
2.124                  -2.829181       -62.32431
2.128                   -2.89751       -62.82686
2.132                  -2.967639       -63.33348
2.136                  -3.039612       -63.84412
2.14                   -3.113472       -64.35878
2.144                  -3.189265       -64.87743
2.148                  -3.267036       -65.40005
2.152                  -3.346832       -65.92662
2.156                  -3.428703       -66.45712
2.16                   -3.512701       -66.99154
2.164                  -3.598876       -67.52984
2.168                  -3.687282       -68.07204
2.172                  -3.777977       -68.61809
2.176                  -3.871018       -69.16798
2.18                   -3.966462       -69.72172
2.184                  -4.064373       -70.27927
2.188                  -4.164816       -70.84064
2.192                  -4.267854       -71.40581
2.196                   -4.37356       -71.97478
2.2                    -4.482006       -72.54753
2.204                  -4.593265       -73.12409
2.208                  -4.707415       -73.70443
2.212                   -4.82454       -74.28858
2.216                  -4.944724       -74.87652
2.22                   -5.068056       -75.46829
2.224                  -5.194631       -76.06389
2.228                  -5.324545       -76.66336
2.232                  -5.457904        -77.2667
2.236                  -5.594813       -77.87397
2.24                   -5.735385       -78.48518
2.244                  -5.879744        -79.1004
2.248                  -6.028012       -79.71968
2.252                  -6.180325       -80.34307
2.256                  -6.336823       -80.97065
2.26                   -6.497658       -81.60252
2.264                  -6.662985       -82.23874
2.268                  -6.832973       -82.87944
2.272                  -7.007801       -83.52473
2.276                   -7.18766       -84.17477
2.28                   -7.372752       -84.82969
2.284                  -7.563298       -85.48969
2.288                  -7.759526       -86.15496
2.292                  -7.961686       -86.82573
2.296                  -8.170047       -87.50226
2.3                    -8.384896       -88.18483
2.304                  -8.606545       -88.87378
2.308                  -8.835327       -89.56944
2.312                  -9.071608        -90.2723
2.316                   -9.31578       -90.98277
2.32                   -9.568274       -91.70143
2.324                  -9.829558       -92.42889
2.328                  -10.10014       -93.16585
2.332                  -10.38059       -93.91312
2.336                  -10.67152       -94.67165
2.34                   -10.97361       -95.44248
2.344                  -11.28761       -96.22683
2.348                  -11.61437       -97.02621
2.352                  -11.95481       -97.84222
2.356                  -12.30999        -98.6769
2.36                   -12.68108       -99.53253
2.364                  -13.06941       -100.4119
2.368                  -13.47648       -101.3183
2.372                  -13.90402       -102.2557
2.376                  -14.35401       -103.2289
2.38                   -14.82872       -104.2438
2.384                  -15.33081       -105.3076
2.388                  -15.86338       -106.4296
2.392                  -16.43011       -107.6212
2.396                  -17.03536       -108.8973
2.4                    -17.68437        -110.277
2.404                   -18.3835        -111.786