! TOUCHSTONE file generated by CST MICROWAVE STUDIO
! Date and time: Fri May  6 15:38:53 2022
! Project name: ant1_ceramic_sweep_fr4.cst
! Parameters = {e=0.035; h=1.6; i=0.792; l1=0.5; l2=20.96; ls=80; wl=1.7; ws=30}
! Header version: 2018
! Port assignment regex: !\s*Touchstone port\s*([0-9]+)\s*=\s*(CST MWS port|CST DS port)\s*([0-9]+|Zmin|Zmax)\s*\(\"(.*)\"\)(\s*mode\s*([0-9]+))?.*
! Touchstone port assignment:
! Touchstone port 1 = CST MWS port 1 ("")
# GHz S DB R 50
0                    -0.01511294              -0
0.004                -0.01510148     -0.04014318
0.008                -0.01506655     -0.08029547
0.012                -0.01500817       -0.120466
0.016                -0.01492632      -0.1606638
0.02                 -0.01482202      -0.2008978
0.024                -0.01469423      -0.2411768
0.028                -0.01454499      -0.2815097
0.032                -0.01437428      -0.3219049
0.036                -0.01418155      -0.3623709
0.04                 -0.01396886      -0.4029158
0.044                -0.01373719      -0.4435476
0.048                -0.01348497      -0.4842741
0.052                -0.01321473      -0.5251024
0.056                -0.01292645      -0.5660399
0.06                 -0.01262215      -0.6070934
0.064                -0.01230177      -0.6482694
0.068                -0.01196683      -0.6895737
0.072                -0.01161728      -0.7310125
0.076                -0.01125616      -0.7725909
0.08                 -0.01088343      -0.8143139
0.084                -0.01050006      -0.8561861
0.088                -0.01010754      -0.8982116
0.092               -0.009706864      -0.9403938
0.096               -0.009298997      -0.9827365
0.1                 -0.008886471       -1.025242
0.104               -0.008469743       -1.067913
0.108               -0.008050307       -1.110751
0.112               -0.007628619       -1.153757
0.116               -0.007207728       -1.196933
0.12                -0.006787573       -1.240278
0.124               -0.006369133       -1.283794
0.128               -0.005954422       -1.327478
0.132               -0.005545458       -1.371331
0.136               -0.005141667        -1.41535
0.14                 -0.00474559       -1.459534
0.144               -0.004357694        -1.50388
0.148               -0.003981041       -1.548386
0.152               -0.003614551       -1.593048
0.156               -0.003260257       -1.637863
0.16                -0.002920711       -1.682826
0.164               -0.002594326       -1.727933
0.168               -0.002283661       -1.773179
0.172               -0.001989209       -1.818559
0.176                -0.00171147       -1.864067
0.18                -0.001453012       -1.909697
0.184               -0.001213826       -1.955444
0.188              -0.0009933838         -2.0013
0.192               -0.000794274       -2.047258
0.196              -0.0006154626       -2.093312
0.2                 -0.000459026       -2.139455
0.204              -0.0003254945       -2.185679
0.208              -0.0002138499       -2.231976
0.212              -0.0001251492       -2.278339
0.216              -6.045047e-05        -2.32476
0.22               -1.771996e-05        -2.37123
0.224              -9.593612e-08       -2.417741
0.228              -6.581064e-06       -2.464287
0.232              -3.722519e-05       -2.510857
0.236              -9.052113e-05       -2.557445
0.24               -0.0001680778       -2.604041
0.244              -0.0002694281       -2.650638
0.248              -0.0003930816       -2.697229
0.252              -0.0005406571       -2.743804
0.256               -0.000709631       -2.790357
0.26               -0.0009016224        -2.83688
0.264               -0.001114636       -2.883365
0.268               -0.001349265       -2.929805
0.272               -0.001602989       -2.976194
0.276               -0.001876408       -3.022524
0.28                -0.002169076       -3.068789
0.284               -0.002478487       -3.114984
0.288               -0.002805234       -3.161101
0.292               -0.003147845       -3.207136
0.296               -0.003504317       -3.253084
0.3                 -0.003876803        -3.29894
0.304               -0.004260717         -3.3447
0.308               -0.004655608        -3.39036
0.312               -0.005061552       -3.435916
0.316               -0.005477056       -3.481365
0.32                -0.005899079       -3.526705
0.324                 -0.0063282       -3.571933
0.328               -0.006763956       -3.617048
0.332               -0.007201729       -3.662049
0.336               -0.007643648       -3.706935
0.34                -0.008086641       -3.751706
0.344               -0.008529707       -3.796362
0.348                -0.00897028       -3.840905
0.352               -0.009409436       -3.885334
0.356               -0.009843555       -3.929652
0.36                 -0.01027317       -3.973861
0.364                -0.01069569       -4.017965
0.368                -0.01111059       -4.061966
0.372                -0.01151632       -4.105867
0.376                 -0.0119113       -4.149675
0.38                 -0.01229393       -4.193392
0.384                -0.01266474       -4.237023
0.388                -0.01302158       -4.280577
0.392                -0.01336234       -4.324056
0.396                -0.01368802       -4.367467
0.4                   -0.0139949       -4.410818
0.404                -0.01428602       -4.454118
0.408                -0.01455666        -4.49737
0.412                -0.01480724       -4.540585
0.416                -0.01503767        -4.58377
0.42                  -0.0152468       -4.626933
0.424                -0.01543351       -4.670083
0.428                -0.01559871        -4.71323
0.432                -0.01573916       -4.756383
0.436                -0.01585785       -4.799551
0.44                 -0.01595155       -4.842742
0.444                -0.01602165       -4.885967
0.448                -0.01606701       -4.929235
0.452                -0.01608847       -4.972558
0.456                -0.01608487       -5.015943
0.46                 -0.01605604       -5.059402
0.464                -0.01600391       -5.102944
0.468                -0.01592621       -5.146578
0.472                -0.01582537       -5.190316
0.476                -0.01570124       -5.234166
0.48                 -0.01555258       -5.278139
0.484                 -0.0153813       -5.322243
0.488                -0.01518826       -5.366488
0.492                 -0.0149738       -5.410883
0.496                -0.01473721       -5.455436
0.5                  -0.01448143       -5.500158
0.504                -0.01420575       -5.545056
0.508                -0.01391207       -5.590137
0.512                -0.01360021       -5.635411
0.516                 -0.0132726       -5.680883
0.52                 -0.01292801       -5.726561
0.524                -0.01257094       -5.772452
0.528                -0.01219965       -5.818563
0.532                -0.01181764       -5.864899
0.536                -0.01142368       -5.911464
0.54                 -0.01102021       -5.958265
0.544                -0.01060916       -6.005305
0.548                -0.01019141       -6.052589
0.552               -0.009768893       -6.100121
0.556               -0.009341477       -6.147903
0.56                 -0.00891214       -6.195937
0.564               -0.008481808       -6.244226
0.568               -0.008051913       -6.292771
0.572                -0.00762441       -6.341574
0.576               -0.007199754       -6.390634
0.58                -0.006779375       -6.439951
0.584               -0.006365802       -6.489525
0.588               -0.005960515       -6.539354
0.592               -0.005563961       -6.589438
0.596               -0.005177647       -6.639774
0.6                  -0.00480465       -6.690358
0.604               -0.004443368       -6.741189
0.608               -0.004095342       -6.792261
0.612               -0.003766245       -6.843573
0.616               -0.003451932       -6.895118
0.62                -0.003157619       -6.946892
0.624               -0.002882251       -6.998889
0.628               -0.002626906       -7.051105
0.632               -0.002393714       -7.103531
0.636               -0.002181661       -7.156161
0.64                -0.001994444       -7.208991
0.644               -0.001831072       -7.262012
0.648               -0.001692721       -7.315214
0.652               -0.001580422       -7.368595
0.656               -0.001494383       -7.422141
0.66                -0.001434103       -7.475847
0.664               -0.001403858       -7.529705
0.668               -0.001399133       -7.583704
0.672               -0.001423171       -7.637836
0.676                -0.00147607       -7.692094
0.68                 -0.00155643       -7.746468
0.684                -0.00166703       -7.800948
0.688               -0.001805879       -7.855528
0.692               -0.001972692       -7.910194
0.696               -0.002168069       -7.964943
0.7                 -0.002391719       -8.019763
0.704               -0.002643299       -8.074644
0.708                -0.00292189        -8.12958
0.712               -0.003228222       -8.184561
0.716                -0.00356089        -8.23958
0.72                -0.003918513       -8.294627
0.724               -0.004302256       -8.349699
0.728               -0.004708698       -8.404783
0.732               -0.005139052       -8.459874
0.736               -0.005592962       -8.514964
0.74                -0.006066864       -8.570049
0.744               -0.006562556       -8.625121
0.748               -0.007075457       -8.680175
0.752               -0.007607806       -8.735205
0.756               -0.008156073       -8.790206
0.76                -0.008719883       -8.845174
0.764               -0.009298742       -8.900107
0.768               -0.009889207       -8.954998
0.772                -0.01049179       -9.009848
0.776                -0.01110351       -9.064652
0.78                 -0.01172491       -9.119409
0.784                -0.01235189       -9.174118
0.788                -0.01298501       -9.228777
0.792                -0.01362215       -9.283389
0.796                -0.01426027        -9.33795
0.8                  -0.01489975       -9.392466
0.804                -0.01553909       -9.446936
0.808                -0.01617562       -9.501363
0.812                -0.01680765       -9.555751
0.816                -0.01743465       -9.610101
0.82                 -0.01805391       -9.664416
0.824                -0.01866471       -9.718706
0.828                -0.01926644       -9.772973
0.832                -0.01985581       -9.827222
0.836                 -0.0204321       -9.881461
0.84                 -0.02099559       -9.935699
0.844                -0.02154149       -9.989937
0.848                -0.02207104       -10.04419
0.852                -0.02258297       -10.09846
0.856                -0.02307544       -10.15276
0.86                 -0.02354761        -10.2071
0.864                -0.02399978       -10.26149
0.868                -0.02442787       -10.31594
0.872                -0.02483368       -10.37046
0.876                -0.02521528       -10.42505
0.88                 -0.02557287       -10.47974
0.884                 -0.0259039       -10.53454
0.888                -0.02621064       -10.58945
0.892                -0.02649002       -10.64448
0.896                -0.02674269       -10.69966
0.9                  -0.02696875       -10.75499
0.904                -0.02716719       -10.81048
0.908                -0.02733913       -10.86616
0.912                -0.02748361       -10.92202
0.916                -0.02760015       -10.97809
0.92                 -0.02769088       -11.03437
0.924                -0.02775424       -11.09089
0.928                 -0.0277924       -11.14765
0.932                -0.02780326       -11.20466
0.936                -0.02778949       -11.26194
0.94                 -0.02775111        -11.3195
0.944                -0.02768968       -11.37736
0.948                -0.02760424       -11.43552
0.952                -0.02749834         -11.494
0.956                -0.02737015        -11.5528
0.96                 -0.02722258       -11.61194
0.964                -0.02705587       -11.67144
0.968                 -0.0268726       -11.73129
0.972                -0.02667332       -11.79152
0.976                -0.02645817       -11.85212
0.98                  -0.0262313       -11.91312
0.984                 -0.0259928       -11.97452
0.988                -0.02574393       -12.03631
0.992                -0.02548729       -12.09853
0.996                -0.02522357       -12.16116
1                    -0.02495549       -12.22422
1.004                -0.02468325       -12.28772
1.008                -0.02441059       -12.35165
1.012                -0.02413883       -12.41602
1.016                -0.02386918       -12.48084
1.02                 -0.02360442       -12.54612
1.024                -0.02334595       -12.61184
1.028                -0.02309549       -12.67802
1.032                -0.02285496       -12.74465
1.036                -0.02262776       -12.81175
1.04                 -0.02241371       -12.87929
1.044                 -0.0222163        -12.9473
1.048                -0.02203633       -13.01576
1.052                 -0.0218759       -13.08469
1.056                -0.02173741       -13.15406
1.06                 -0.02162268       -13.22384
1.064                -0.02153247       -13.29413
1.068                -0.02146915       -13.36481
1.072                -0.02143498       -13.43596
1.076                -0.02143014       -13.50751
1.08                 -0.02145819        -13.5795
1.084                -0.02151792       -13.65193
1.088                -0.02161317       -13.72474
1.092                -0.02174438       -13.79796
1.096                -0.02191146       -13.87158
1.1                  -0.02211777        -13.9456
1.104                -0.02236363       -14.01996
1.108                -0.02265014       -14.09474
1.112                -0.02297692       -14.16984
1.116                -0.02334761       -14.24531
1.12                 -0.02375939       -14.32112
1.124                -0.02421536       -14.39724
1.128                -0.02471519       -14.47372
1.132                -0.02525888        -14.5505
1.136                -0.02584826       -14.62758
1.14                 -0.02648116       -14.70495
1.144                -0.02716053        -14.7826
1.148                -0.02788403       -14.86053
1.152                -0.02865292       -14.93871
1.156                -0.02946543       -15.01715
1.16                 -0.03032205       -15.09582
1.164                -0.03122386       -15.17473
1.168                -0.03216768       -15.25385
1.172                -0.03315481       -15.33319
1.176                -0.03418292       -15.41273
1.18                 -0.03525288       -15.49247
1.184                -0.03636223       -15.57239
1.188                -0.03751078       -15.65249
1.192                -0.03869709       -15.73276
1.196                -0.03991993       -15.81319
1.2                  -0.04117785       -15.89378
1.204                -0.04246892       -15.97453
1.208                -0.04379384       -16.05542
1.212                -0.04514856       -16.13645
1.216                -0.04653264       -16.21762
1.22                 -0.04794351       -16.29892
1.224                 -0.0493822       -16.38036
1.228                -0.05084356       -16.46192
1.232                -0.05232704       -16.54362
1.236                -0.05383027       -16.62544
1.24                 -0.05535318        -16.7074
1.244                -0.05689123       -16.78948
1.248                -0.05844382        -16.8717
1.252                -0.06001022       -16.95405
1.256                -0.06158515       -17.03655
1.26                 -0.06317007       -17.11919
1.264                -0.06476002       -17.20198
1.268                -0.06635568       -17.28492
1.272                -0.06795378       -17.36803
1.276                -0.06955133       -17.45131
1.28                 -0.07114809       -17.53478
1.284                -0.07274258       -17.61843
1.288                -0.07433031       -17.70229
1.292                -0.07591266       -17.78636
1.296                 -0.0774873       -17.87066
1.3                  -0.07904978       -17.95519
1.304                -0.08060179       -18.03998
1.308                -0.08214028       -18.12504
1.312                -0.08366376       -18.21038
1.316                -0.08517247       -18.29601
1.32                 -0.08666272       -18.38197
1.324                -0.08813612       -18.46826
1.328                -0.08959013        -18.5549
1.332                -0.09102299       -18.64192
1.336                -0.09243627       -18.72932
1.34                 -0.09382783       -18.81714
1.344                -0.09519698       -18.90538
1.348                -0.09654386       -18.99407
1.352                -0.09786862       -19.08324
1.356                -0.09916938        -19.1729
1.36                  -0.1004478       -19.26307
1.364                 -0.1017048       -19.35378
1.368                 -0.1029387       -19.44505
1.372                 -0.1041506        -19.5369
1.376                 -0.1053414       -19.62936
1.38                  -0.1065123       -19.72244
1.384                 -0.1076635       -19.81617
1.388                 -0.1087959       -19.91057
1.392                 -0.1099119       -20.00566
1.396                 -0.1110112       -20.10147
1.4                    -0.112096       -20.19802
1.404                 -0.1131675       -20.29533
1.408                 -0.1142286       -20.39341
1.412                 -0.1152813        -20.4923
1.416                  -0.116326       -20.59201
1.42                  -0.1173661       -20.69256
1.424                 -0.1184038       -20.79397
1.428                 -0.1194413       -20.89626
1.432                 -0.1204817       -20.99946
1.436                 -0.1215258       -21.10357
1.44                   -0.122579       -21.20861
1.444                 -0.1236423       -21.31461
1.448                 -0.1247187       -21.42158
1.452                 -0.1258129       -21.52952
1.456                 -0.1269269       -21.63847
1.46                  -0.1280642       -21.74842
1.464                 -0.1292277       -21.85941
1.468                 -0.1304208       -21.97142
1.472                 -0.1316481       -22.08449
1.476                 -0.1329108       -22.19861
1.48                  -0.1342147       -22.31379
1.484                 -0.1355618       -22.43006
1.488                 -0.1369576        -22.5474
1.492                 -0.1384024       -22.66584
1.496                 -0.1399034       -22.78537
1.5                   -0.1414606         -22.906
1.504                 -0.1430804       -23.02773
1.508                 -0.1447659       -23.15057
1.512                 -0.1465203       -23.27452
1.516                  -0.148347       -23.39959
1.52                  -0.1502493       -23.52575
1.524                 -0.1522301       -23.65304
1.528                 -0.1542954       -23.78143
1.532                 -0.1564457       -23.91093
1.536                 -0.1586851       -24.04153
1.54                  -0.1610169       -24.17324
1.544                 -0.1634444       -24.30604
1.548                 -0.1659692       -24.43993
1.552                 -0.1685976       -24.57491
1.556                 -0.1713291       -24.71097
1.56                  -0.1741665        -24.8481
1.564                 -0.1771145        -24.9863
1.568                 -0.1801753       -25.12557
1.572                 -0.1833484       -25.26587
1.576                 -0.1866401       -25.40723
1.58                  -0.1900484       -25.54962
1.584                 -0.1935785       -25.69303
1.588                 -0.1972306       -25.83746
1.592                 -0.2010072        -25.9829
1.596                 -0.2049082       -26.12934
1.6                   -0.2089368       -26.27677
1.604                  -0.213094       -26.42518
1.608                 -0.2173803       -26.57456
1.612                 -0.2217959        -26.7249
1.616                 -0.2263437        -26.8762
1.62                  -0.2310228       -27.02845
1.624                 -0.2358339       -27.18163
1.628                 -0.2407783       -27.33575
1.632                  -0.245855        -27.4908
1.636                 -0.2510637       -27.64676
1.64                  -0.2564062       -27.80363
1.644                 -0.2618822       -27.96142
1.648                 -0.2674893       -28.12012
1.652                 -0.2732286       -28.27971
1.656                 -0.2790996       -28.44021
1.66                  -0.2851023       -28.60161
1.664                 -0.2912341        -28.7639
1.668                 -0.2974945       -28.92711
1.672                 -0.3038845       -29.09121
1.676                 -0.3104015       -29.25622
1.68                   -0.317044       -29.42214
1.684                 -0.3238127       -29.58899
1.688                 -0.3307042       -29.75675
1.692                 -0.3377199       -29.92546
1.696                 -0.3448557       -30.09511
1.7                   -0.3521125       -30.26571
1.704                 -0.3594883       -30.43729
1.708                 -0.3669808       -30.60986
1.712                 -0.3745904       -30.78342
1.716                  -0.382315       -30.95802
1.72                   -0.390153       -31.13365
1.724                 -0.3981038       -31.31035
1.728                  -0.406167       -31.48814
1.732                 -0.4143406       -31.66703
1.736                 -0.4226242       -31.84708
1.74                   -0.431017       -32.02829
1.744                  -0.439518        -32.2107
1.748                 -0.4481257       -32.39434
1.752                 -0.4568418       -32.57925
1.756                 -0.4656654       -32.76546
1.76                  -0.4745958       -32.95301
1.764                 -0.4836344       -33.14194
1.768                 -0.4927789       -33.33229
1.772                 -0.5020347        -33.5241
1.776                 -0.5113972       -33.71741
1.78                  -0.5208702       -33.91228
1.784                 -0.5304563       -34.10876
1.788                 -0.5401549       -34.30687
1.792                 -0.5499688       -34.50669
1.796                  -0.559901       -34.70825
1.8                   -0.5699527       -34.91162
1.804                 -0.5801271       -35.11684
1.808                 -0.5904277       -35.32397
1.812                 -0.6008592       -35.53308
1.816                 -0.6114237        -35.7442
1.82                  -0.6221266       -35.95741
1.824                 -0.6329721       -36.17277
1.828                 -0.6439645       -36.39031
1.832                 -0.6551114       -36.61013
1.836                 -0.6664178       -36.83227
1.84                  -0.6778895       -37.05679
1.844                 -0.6895338       -37.28375
1.848                 -0.7013582       -37.51324
1.852                 -0.7133688       -37.74528
1.856                 -0.7255754       -37.97997
1.86                  -0.7379861       -38.21735
1.864                 -0.7506098        -38.4575
1.868                 -0.7634549       -38.70046
1.872                 -0.7765338       -38.94632
1.876                 -0.7898543       -39.19511
1.88                  -0.8034278       -39.44692
1.884                 -0.8172658       -39.70179
1.888                 -0.8313806        -39.9598
1.892                 -0.8457843         -40.221
1.896                 -0.8604884       -40.48545
1.9                   -0.8755065        -40.7532
1.904                 -0.8908542       -41.02433
1.908                 -0.9065417       -41.29887
1.912                 -0.9225863        -41.5769
1.916                 -0.9390015       -41.85845
1.92                  -0.9558034       -42.14358
1.924                 -0.9730068       -42.43235
1.928                 -0.9906307       -42.72481
1.932                  -1.008687         -43.021
1.936                  -1.027198       -43.32097
1.94                   -1.046178       -43.62477
1.944                  -1.065643       -43.93243
1.948                  -1.085616       -44.24401
1.952                  -1.106114       -44.55954
1.956                  -1.127156       -44.87907
1.96                   -1.148759       -45.20262
1.964                  -1.170946       -45.53024
1.968                  -1.193737       -45.86196
1.972                  -1.217152       -46.19781
1.976                  -1.241211       -46.53781
1.98                   -1.265938       -46.88201
1.984                  -1.291352       -47.23042
1.988                  -1.317478       -47.58307
1.992                  -1.344338       -47.93998
1.996                  -1.371952       -48.30117
2                      -1.400346       -48.66666
2.004                  -1.429543       -49.03647
2.008                  -1.459567       -49.41061
2.012                  -1.490443       -49.78909
2.016                  -1.522194       -50.17193
2.02                   -1.554849       -50.55914
2.024                  -1.588428       -50.95072
2.028                  -1.622962       -51.34668
2.032                  -1.658473       -51.74702
2.036                  -1.694992       -52.15175
2.04                   -1.732542       -52.56086
2.044                  -1.771152       -52.97436
2.048                  -1.810854       -53.39225
2.052                  -1.851669       -53.81452
2.056                   -1.89363       -54.24116
2.06                   -1.936768       -54.67217
2.064                  -1.981108       -55.10754
2.068                  -2.026681       -55.54726
2.072                  -2.073522       -55.99133
2.076                  -2.121658       -56.43973
2.08                   -2.171123       -56.89243
2.084                  -2.221948       -57.34945
2.088                  -2.274167       -57.81076
2.092                  -2.327811       -58.27633
2.096                  -2.382919       -58.74616
2.1                    -2.439521       -59.22023
2.104                  -2.497656       -59.69854
2.108                  -2.557357       -60.18102
2.112                  -2.618663       -60.66769
2.116                  -2.681613       -61.15853
2.12                   -2.746245        -61.6535
2.124                  -2.812596        -62.1526
2.128                  -2.880711       -62.65579
2.132                  -2.950629       -63.16308
2.136                  -3.022394       -63.67441
2.14                   -3.096048       -64.18977
2.144                  -3.171639       -64.70915
2.148                  -3.249209       -65.23252
2.152                  -3.328812       -65.75988
2.156                  -3.410493       -66.29118
2.16                   -3.494301       -66.82642
2.164                  -3.580293       -67.36557
2.168                  -3.668519       -67.90863
2.172                  -3.759037       -68.45557
2.176                  -3.851904       -69.00637
2.18                    -3.94718         -69.561
2.184                  -4.044925        -70.1195
2.188                  -4.145207       -70.68181
2.192                   -4.24809       -71.24795
2.196                  -4.353643       -71.81789
2.2                     -4.46194       -72.39165
2.204                  -4.573054       -72.96921
2.208                  -4.687065       -73.55057
2.212                  -4.804055       -74.13574
2.216                  -4.924108       -74.72474
2.22                   -5.047314       -75.31756
2.224                  -5.173767       -75.91423
2.228                  -5.303565       -76.51477
2.232                   -5.43681       -77.11918
2.236                   -5.57361       -77.72754
2.24                   -5.714081       -78.33985
2.244                  -5.858341       -78.95618
2.248                  -6.006516       -79.57655
2.252                  -6.158742       -80.20107
2.256                  -6.315157       -80.82977
2.26                   -6.475912       -81.46275
2.264                  -6.641166       -82.10009
2.268                  -6.811087       -82.74193
2.272                  -6.985853       -83.38834
2.276                  -7.165655       -84.03952
2.28                   -7.350697       -84.69557
2.284                  -7.541197       -85.35671
2.288                  -7.737385       -86.02311
2.292                  -7.939512         -86.695
2.296                  -8.147845       -87.37266
2.3                    -8.362675       -88.05637
2.304                  -8.584309       -88.74643
2.308                  -8.813082       -89.44322
2.312                  -9.049363        -90.1472
2.316                  -9.293543       -90.85879
2.32                   -9.546053       -91.57857
2.324                  -9.807358       -92.30715
2.328                  -10.07797        -93.0452
2.332                  -10.35846       -93.79357
2.336                  -10.64944       -94.55319
2.34                   -10.95159       -95.32511
2.344                  -11.26567       -96.11055
2.348                  -11.59251         -96.911
2.352                  -11.93306       -97.72811
2.356                  -12.28835       -98.56385
2.36                   -12.65956       -99.42054
2.364                  -13.04804        -100.301
2.368                  -13.45528       -101.2084
2.372                  -13.88301       -102.1469
2.376                  -14.33321       -103.1211
2.38                   -14.80817       -104.1371
2.384                  -15.31054       -105.2021
2.388                  -15.84343       -106.3252
2.392                  -16.41053        -107.518
2.396                   -17.0162       -108.7953
2.4                     -17.6657       -110.1765
2.404                   -18.3654        -111.687