! TOUCHSTONE file generated by CST MICROWAVE STUDIO
! Date and time: Fri May  6 15:38:52 2022
! Project name: ant1_ceramic_sweep_fr4.cst
! Parameters = {e=0.035; h=1.6; i=0.72; l1=0.5; l2=20.96; ls=80; wl=1.7; ws=30}
! Header version: 2018
! Port assignment regex: !\s*Touchstone port\s*([0-9]+)\s*=\s*(CST MWS port|CST DS port)\s*([0-9]+|Zmin|Zmax)\s*\(\"(.*)\"\)(\s*mode\s*([0-9]+))?.*
! Touchstone port assignment:
! Touchstone port 1 = CST MWS port 1 ("")
# GHz S DB R 50
0                    -0.01604807              -0
0.004                -0.01603618      -0.0391707
0.008                -0.01599897     -0.07835101
0.012                -0.01593694      -0.1175506
0.016                -0.01585061      -0.1567788
0.02                 -0.01573944      -0.1960453
0.024                -0.01560446      -0.2353594
0.028                -0.01544667      -0.2747302
0.032                -0.01526554      -0.3141669
0.036                -0.01506104      -0.3536781
0.04                 -0.01483521      -0.3932726
0.044                -0.01458905      -0.4329589
0.048                -0.01432201      -0.4727448
0.052                 -0.0140356      -0.5126383
0.056                 -0.0137303       -0.552647
0.06                  -0.0134071      -0.5927781
0.064                 -0.0130675      -0.6330381
0.068                -0.01271198      -0.6734338
0.072                -0.01234254      -0.7139711
0.076                -0.01195966      -0.7546557
0.08                 -0.01156327      -0.7954928
0.084                -0.01115746      -0.8364872
0.088                -0.01074166      -0.8776431
0.092                -0.01031633      -0.9189646
0.096               -0.009883979      -0.9604548
0.1                 -0.009446632       -1.002117
0.104               -0.009004224       -1.043953
0.108               -0.008559798       -1.085965
0.112               -0.008112257       -1.128155
0.116               -0.007665683       -1.170524
0.12                -0.007218978       -1.213071
0.124               -0.006775709       -1.255797
0.128               -0.006335815       -1.298701
0.132               -0.005900794       -1.341782
0.136               -0.005472663       -1.385038
0.14                -0.005051885       -1.428468
0.144               -0.004642037       -1.472069
0.148               -0.004240481       -1.515838
0.152               -0.003851315       -1.559771
0.156               -0.003476051       -1.603864
0.16                -0.003113616       -1.648113
0.164               -0.002768636       -1.692514
0.168               -0.002436937        -1.73706
0.172               -0.002124191       -1.781747
0.176                -0.00182934       -1.826568
0.18                 -0.00155392       -1.871518
0.184               -0.001298437       -1.916589
0.188               -0.001065471       -1.961774
0.192              -0.0008524306       -2.007068
0.196              -0.0006624279        -2.05246
0.2                -0.0004944307       -2.097946
0.204              -0.0003510416       -2.143515
0.208              -0.0002322818       -2.189161
0.212              -0.0001366159       -2.234874
0.216              -6.665875e-05       -2.280648
0.22               -2.089896e-05       -2.326471
0.224              -9.178325e-07       -2.372338
0.228              -5.727666e-06       -2.418238
0.232              -3.641056e-05       -2.464163
0.236              -9.145985e-05       -2.510104
0.24               -0.0001719764       -2.556053
0.244              -0.0002785302       -2.602001
0.248              -0.0004085961       -2.647941
0.252              -0.0005632785       -2.693862
0.256              -0.0007410944       -2.739757
0.26                -0.000943152       -2.785619
0.264               -0.001166941       -2.831438
0.268               -0.001414607       -2.877207
0.272               -0.001683122        -2.92292
0.276               -0.001971015       -2.968569
0.28                -0.002279921       -3.014146
0.284               -0.002606813       -3.059647
0.288               -0.002951264       -3.105062
0.292               -0.003313348       -3.150389
0.296               -0.003691076       -3.195621
0.3                 -0.004084532       -3.240753
0.304                -0.00449017       -3.285779
0.308               -0.004908059       -3.330697
0.312               -0.005337765       -3.375503
0.316               -0.005776763       -3.420192
0.32                -0.006224085       -3.464763
0.324               -0.006678764       -3.509212
0.328               -0.007138786       -3.553538
0.332               -0.007603684       -3.597741
0.336               -0.008072481       -3.641818
0.34                -0.008541066       -3.685769
0.344                -0.00900949       -3.729595
0.348               -0.009477256       -3.773298
0.352               -0.009942329       -3.816876
0.356                -0.01040317       -3.860334
0.36                 -0.01085875       -3.903673
0.364                 -0.0113065       -3.946895
0.368                -0.01174744       -3.990005
0.372                -0.01217691       -4.033005
0.376                -0.01259541         -4.0759
0.38                 -0.01300342       -4.118698
0.384                -0.01339678       -4.161399
0.388                -0.01377493       -4.204012
0.392                -0.01413782       -4.246543
0.396                -0.01448331       -4.288998
0.4                  -0.01481031       -4.331384
0.404                -0.01511876       -4.373709
0.408                -0.01540752       -4.415981
0.412                -0.01567393       -4.458208
0.416                -0.01591893       -4.500397
0.42                  -0.0161419        -4.54256
0.424                -0.01634168       -4.584704
0.428                -0.01651713       -4.626838
0.432                -0.01666814       -4.668973
0.436                -0.01679403       -4.711118
0.44                 -0.01689521       -4.753283
0.444                -0.01696997       -4.795478
0.448                -0.01701973       -4.837714
0.452                -0.01704276       -4.880001
0.456                -0.01703996        -4.92235
0.46                 -0.01701065       -4.964769
0.464                 -0.0169562       -5.007272
0.468                -0.01687543       -5.049866
0.472                -0.01676918       -5.092564
0.476                -0.01663677       -5.135375
0.48                 -0.01648007        -5.17831
0.484                -0.01629999       -5.221378
0.488                -0.01609472       -5.264589
0.492                -0.01586827       -5.307954
0.496                -0.01561785       -5.351481
0.5                  -0.01534639       -5.395179
0.504                -0.01505318       -5.439057
0.508                -0.01474115       -5.483124
0.512                -0.01441064       -5.527388
0.516                 -0.0140625       -5.571857
0.52                 -0.01369656       -5.616537
0.524                -0.01331678       -5.661438
0.528                -0.01292196       -5.706564
0.532                -0.01251399       -5.751922
0.536                -0.01209479       -5.797517
0.54                 -0.01166573       -5.843356
0.544                -0.01122721       -5.889443
0.548                -0.01078268       -5.935782
0.552                -0.01033046       -5.982375
0.556               -0.009875576       -6.029229
0.56                -0.009416878       -6.076343
0.564               -0.008956821       -6.123721
0.568               -0.008497889       -6.171364
0.572               -0.008039958       -6.219273
0.576               -0.007585016       -6.267449
0.58                -0.007135556       -6.315891
0.584               -0.006692538       -6.364599
0.588               -0.006256917       -6.413572
0.592               -0.005831742       -6.462808
0.596               -0.005416459       -6.512304
0.6                 -0.005014103       -6.562058
0.604               -0.004625173       -6.612067
0.608               -0.004250692       -6.662326
0.612               -0.003893743       -6.712832
0.616               -0.003555388       -6.763578
0.62                -0.003235061       -6.814563
0.624               -0.002935442       -6.865776
0.628               -0.002657035       -6.917214
0.632               -0.002401958       -6.968871
0.636               -0.002168727       -7.020737
0.64                -0.001961541       -7.072808
0.644               -0.001779951       -7.125074
0.648               -0.001624059       -7.177528
0.652               -0.001495457       -7.230164
0.656               -0.001394355       -7.282967
0.66                -0.001322296       -7.335936
0.664               -0.001279493       -7.389057
0.668               -0.001264474       -7.442322
0.672               -0.001279965       -7.495723
0.676               -0.001326129        -7.54925
0.68                -0.001402093       -7.602892
0.684                -0.00150798       -7.656642
0.688               -0.001644006       -7.710487
0.692               -0.001810273       -7.764421
0.696                -0.00200646       -7.818434
0.7                 -0.002232253       -7.872514
0.704               -0.002488849       -7.926653
0.708               -0.002773327       -7.980842
0.712               -0.003086346       -8.035073
0.716               -0.003428128       -8.089337
0.72                -0.003796247       -8.143623
0.724               -0.004190387       -8.197924
0.728                -0.00461172       -8.252234
0.732               -0.005057871       -8.306543
0.736               -0.005526398       -8.360843
0.74                -0.006017477       -8.415128
0.744               -0.006530724       -8.469392
0.748               -0.007064256       -8.523627
0.752               -0.007617123        -8.57783
0.756               -0.008187452       -8.631992
0.76                -0.008774811       -8.686111
0.764               -0.009377213       -8.740184
0.768               -0.009992773       -8.794202
0.772                -0.01062095       -8.848169
0.776                -0.01125881       -8.902075
0.78                 -0.01190686       -8.955924
0.784                -0.01256056       -9.009709
0.788                -0.01322142       -9.063434
0.792                -0.01388587       -9.117096
0.796                -0.01455289       -9.170696
0.8                  -0.01522086       -9.224236
0.804                -0.01588877       -9.277716
0.808                -0.01655235       -9.331139
0.812                 -0.0172126       -9.384509
0.816                -0.01786687       -9.437827
0.82                  -0.0185145       -9.491099
0.824                -0.01915227       -9.544329
0.828                -0.01978003       -9.597522
0.832                -0.02039452       -9.650684
0.836                -0.02099704       -9.703825
0.84                 -0.02158331       -9.756949
0.844                 -0.0221536       -9.810063
0.848                -0.02270513       -9.863176
0.852                -0.02323808       -9.916297
0.856                -0.02375012       -9.969437
0.86                 -0.02424201        -10.0226
0.864                -0.02471037       -10.07581
0.868                -0.02515427       -10.12906
0.872                -0.02557392       -10.18237
0.876                -0.02596943       -10.23575
0.88                 -0.02633635       -10.28922
0.884                -0.02667737       -10.34278
0.888                -0.02699051       -10.39644
0.892                -0.02727537       -10.45023
0.896                -0.02753308       -10.50415
0.9                   -0.0277611       -10.55822
0.904                 -0.0279595       -10.61244
0.908                -0.02812937       -10.66684
0.912                -0.02826923       -10.72143
0.916                -0.02838013       -10.77621
0.92                 -0.02846215       -10.83121
0.924                 -0.0285158       -10.88644
0.928                 -0.0285411       -10.94191
0.932                -0.02853856       -10.99763
0.936                -0.02850833       -11.05362
0.94                 -0.02845235       -11.10989
0.944                -0.02836965       -11.16646
0.948                 -0.0282624       -11.22333
0.952                -0.02813209       -11.28052
0.956                -0.02797878       -11.33804
0.96                 -0.02780297       -11.39591
0.964                -0.02760737       -11.45413
0.968                  -0.027392       -11.51271
0.972                -0.02715893       -11.57168
0.976                -0.02691041       -11.63102
0.98                 -0.02664694       -11.69076
0.984                -0.02637067       -11.75091
0.988                -0.02608223       -11.81147
0.992                -0.02578438       -11.87245
0.996                -0.02547975       -11.93386
1                    -0.02516851       -11.99571
1.004                -0.02485294         -12.058
1.008                -0.02453517       -12.12073
1.012                 -0.0242176       -12.18392
1.016                -0.02390188       -12.24756
1.02                 -0.02358985       -12.31167
1.024                -0.02328333       -12.37623
1.028                -0.02298565       -12.44126
1.032                -0.02269612       -12.50676
1.036                -0.02242017       -12.57272
1.04                 -0.02215715       -12.63916
1.044                -0.02191158       -12.70606
1.048                -0.02168242        -12.7734
1.052                -0.02147463       -12.84124
1.056                -0.02128742       -12.90954
1.06                 -0.02112475       -12.97831
1.064                -0.02098787       -13.04748
1.068                -0.02087885       -13.11712
1.072                -0.02079854       -13.18723
1.076                -0.02074987        -13.2578
1.08                 -0.02073295       -13.32875
1.084                -0.02075033       -13.40011
1.088                -0.02080411       -13.47196
1.092                -0.02089486       -13.54417
1.096                -0.02102404       -13.61679
1.1                  -0.02119313       -13.68982
1.104                -0.02140189        -13.7632
1.108                 -0.0216538       -13.83697
1.112                -0.02194828       -13.91115
1.116                -0.02228714       -13.98562
1.12                 -0.02266978       -14.06045
1.124                 -0.0230976       -14.13561
1.128                -0.02357293       -14.21113
1.132                -0.02409307       -14.28694
1.136                -0.02466015       -14.36305
1.14                  -0.0252734       -14.43945
1.144                -0.02593467       -14.51613
1.148                -0.02664177       -14.59308
1.152                -0.02739646       -14.67029
1.156                -0.02819818       -14.74774
1.16                  -0.0290447       -14.82542
1.164                -0.02993778       -14.90332
1.168                -0.03087622       -14.98145
1.172                -0.03185929       -15.05977
1.176                -0.03288535       -15.13829
1.18                 -0.03395509       -15.21699
1.184                -0.03506675       -15.29587
1.188                -0.03621757       -15.37491
1.192                 -0.0374094       -15.45411
1.196                -0.03863915       -15.53347
1.2                  -0.03990516       -15.61296
1.204                -0.04120737        -15.6926
1.208                 -0.0425432       -15.77236
1.212                -0.04391052       -15.85225
1.216                -0.04530899       -15.93226
1.22                 -0.04673541       -16.01238
1.224                -0.04818894       -16.09262
1.228                -0.04966761       -16.17297
1.232                -0.05116857       -16.25343
1.236                -0.05269127         -16.334
1.24                 -0.05423245       -16.41469
1.244                -0.05578977       -16.49547
1.248                -0.05736202       -16.57637
1.252                -0.05894764       -16.65739
1.256                -0.06054321       -16.73852
1.26                 -0.06214721       -16.81978
1.264                -0.06375692       -16.90116
1.268                -0.06537218       -16.98269
1.272                -0.06698811       -17.06434
1.276                -0.06860394       -17.14615
1.28                 -0.07021762       -17.22812
1.284                -0.07182701       -17.31026
1.288                -0.07343032       -17.39258
1.292                -0.07502573       -17.47509
1.296                 -0.0766105        -17.5578
1.3                  -0.07818346       -17.64072
1.304                -0.07974433       -17.72389
1.308                -0.08128977        -17.8073
1.312                -0.08281724       -17.89097
1.316                -0.08432848       -17.97492
1.32                 -0.08581911       -18.05916
1.324                -0.08728912       -18.14372
1.328                -0.08873829       -18.22862
1.332                -0.09016411       -18.31387
1.336                -0.09156598       -18.39949
1.34                   -0.092944        -18.4855
1.344                -0.09429631       -18.57193
1.348                -0.09562293       -18.65879
1.352                -0.09692479       -18.74611
1.356                -0.09819973       -18.83392
1.36                 -0.09944903       -18.92222
1.364                 -0.1006717       -19.01105
1.368                 -0.1018694       -19.10043
1.372                 -0.1030411       -19.19038
1.376                  -0.104188       -19.28092
1.38                  -0.1053114       -19.37209
1.384                 -0.1064113       -19.46389
1.388                 -0.1074887       -19.55636
1.392                 -0.1085461       -19.64952
1.396                  -0.109583        -19.7434
1.4                   -0.1106024         -19.838
1.404                 -0.1116048       -19.93337
1.408                  -0.112592       -20.02951
1.412                 -0.1135681       -20.12645
1.416                 -0.1145314       -20.22423
1.42                  -0.1154875       -20.32283
1.424                 -0.1164383       -20.42231
1.428                 -0.1173846       -20.52268
1.432                 -0.1183297       -20.62395
1.436                 -0.1192775       -20.72614
1.44                  -0.1202293       -20.82928
1.444                 -0.1211888       -20.93337
1.448                 -0.1221596       -21.03844
1.452                 -0.1231442       -21.14451
1.456                  -0.124146       -21.25158
1.46                   -0.125168       -21.35967
1.464                 -0.1262149        -21.4688
1.468                  -0.127288       -21.57897
1.472                 -0.1283924       -21.69021
1.476                 -0.1295323       -21.80251
1.48                  -0.1307101       -21.91589
1.484                   -0.13193       -22.03036
1.488                 -0.1331961       -22.14593
1.492                 -0.1345109       -22.26261
1.496                  -0.135879       -22.38038
1.5                   -0.1373049       -22.49928
1.504                 -0.1387904       -22.61929
1.508                  -0.140341       -22.74043
1.512                 -0.1419604       -22.86268
1.516                 -0.1436513       -22.98606
1.52                  -0.1454167       -23.11057
1.524                 -0.1472626        -23.2362
1.528                  -0.149191       -23.36295
1.532                 -0.1512048       -23.49082
1.536                 -0.1533096       -23.61981
1.54                  -0.1555062        -23.7499
1.544                 -0.1577988       -23.88111
1.548                 -0.1601902       -24.01342
1.552                 -0.1626851       -24.14682
1.556                 -0.1652847       -24.28131
1.56                  -0.1679929       -24.41688
1.564                 -0.1708114       -24.55353
1.568                 -0.1737432       -24.69123
1.572                 -0.1767904          -24.83
1.576                 -0.1799571       -24.96981
1.58                  -0.1832423       -25.11066
1.584                 -0.1866506       -25.25253
1.588                 -0.1901832       -25.39542
1.592                 -0.1938409       -25.53932
1.596                  -0.197627       -25.68421
1.6                   -0.2015422       -25.83009
1.604                 -0.2055868       -25.97694
1.608                 -0.2097622       -26.12476
1.612                 -0.2140715       -26.27353
1.616                 -0.2185128       -26.42325
1.62                  -0.2230883       -26.57391
1.624                 -0.2277979       -26.72549
1.628                  -0.232641       -26.87798
1.632                 -0.2376197       -27.03139
1.636                 -0.2427328        -27.1857
1.64                   -0.247981        -27.3409
1.644                 -0.2533625         -27.497
1.648                  -0.258879       -27.65398
1.652                 -0.2645279       -27.81184
1.656                 -0.2703101       -27.97058
1.66                  -0.2762241       -28.13019
1.664                 -0.2822694       -28.29067
1.668                 -0.2884448       -28.45203
1.672                 -0.2947484       -28.61426
1.676                 -0.3011796       -28.77737
1.68                  -0.3077376       -28.94135
1.684                 -0.3144214       -29.10623
1.688                 -0.3212284       -29.27199
1.692                 -0.3281575       -29.43866
1.696                 -0.3352072       -29.60623
1.7                   -0.3423764       -29.77473
1.704                 -0.3496631       -29.94415
1.708                 -0.3570665       -30.11453
1.712                 -0.3645835       -30.28587
1.716                 -0.3722148        -30.4582
1.72                  -0.3799556       -30.63152
1.724                 -0.3878081       -30.80587
1.728                 -0.3957689       -30.98127
1.732                 -0.4038361       -31.15773
1.736                 -0.4120118        -31.3353
1.74                  -0.4202896       -31.51399
1.744                 -0.4286725       -31.69385
1.748                 -0.4371588       -31.87489
1.752                 -0.4457475       -32.05716
1.756                 -0.4544379       -32.24069
1.76                   -0.463229       -32.42551
1.764                 -0.4721231       -32.61169
1.768                 -0.4811173       -32.79923
1.772                 -0.4902132       -32.98821
1.776                 -0.4994118       -33.17866
1.78                  -0.5087133       -33.37062
1.784                 -0.5181176       -33.56414
1.788                 -0.5276285       -33.75928
1.792                 -0.5372465        -33.9561
1.796                 -0.5469718       -34.15462
1.8                    -0.556808       -34.35492
1.804                 -0.5667599       -34.55705
1.808                 -0.5768274       -34.76107
1.812                  -0.587014       -34.96702
1.816                 -0.5973259       -35.17498
1.82                  -0.6077636       -35.38502
1.824                 -0.6183341       -35.59716
1.828                 -0.6290425       -35.81151
1.832                 -0.6398919       -36.02809
1.836                 -0.6508906         -36.247
1.84                  -0.6620422       -36.46827
1.844                 -0.6733557         -36.692
1.848                 -0.6848362       -36.91823
1.852                 -0.6964925       -37.14703
1.856                 -0.7083311       -37.37847
1.86                  -0.7203639       -37.61261
1.864                 -0.7325958       -37.84953
1.868                  -0.745038       -38.08928
1.872                 -0.7576999       -38.33193
1.876                 -0.7705925       -38.57754
1.88                  -0.7837254       -38.82619
1.884                 -0.7971099       -39.07793
1.888                 -0.8107604       -39.33282
1.892                 -0.8246858       -39.59094
1.896                 -0.8388995       -39.85234
1.9                    -0.853417       -40.11708
1.904                 -0.8682481       -40.38523
1.908                 -0.8834119       -40.65684
1.912                 -0.8989172       -40.93197
1.916                 -0.9147833       -41.21067
1.92                  -0.9310245       -41.49302
1.924                 -0.9476551       -41.77905
1.928                 -0.9646949       -42.06882
1.932                 -0.9821586       -42.36238
1.936                  -1.000063       -42.65978
1.94                   -1.018427       -42.96108
1.944                  -1.037269       -43.26631
1.948                  -1.056607       -43.57552
1.952                  -1.076459       -43.88875
1.956                  -1.096845       -44.20605
1.96                   -1.117786       -44.52745
1.964                  -1.139302       -44.85299
1.968                  -1.161413       -45.18272
1.972                   -1.18414       -45.51665
1.976                  -1.207503       -45.85481
1.98                   -1.231526       -46.19726
1.984                   -1.25623       -46.54401
1.988                   -1.28164       -46.89509
1.992                  -1.307777       -47.25052
1.996                  -1.334662        -47.6103
2                      -1.362322       -47.97449
2.004                  -1.390781        -48.3431
2.008                  -1.420062       -48.71613
2.012                   -1.45019       -49.09359
2.016                  -1.481191       -49.47552
2.02                    -1.51309       -49.86189
2.024                  -1.545912       -50.25275
2.028                  -1.579685       -50.64809
2.032                  -1.614435       -51.04791
2.036                   -1.65019       -51.45223
2.04                   -1.686975       -51.86102
2.044                  -1.724821       -52.27431
2.048                  -1.763754       -52.69209
2.052                  -1.803803       -53.11435
2.056                     -1.845       -53.54109
2.06                    -1.88737        -53.9723
2.064                  -1.930947       -54.40798
2.068                   -1.97576       -54.84812
2.072                  -2.021841       -55.29271
2.076                   -2.06922       -55.74173
2.08                   -2.117931       -56.19517
2.084                  -2.168005       -56.65302
2.088                  -2.219477       -57.11528
2.092                   -2.27238        -57.5819
2.096                   -2.32675        -58.0529
2.1                     -2.38262       -58.52822
2.104                  -2.440027       -59.00788
2.108                  -2.499007       -59.49186
2.112                  -2.559599       -59.98011
2.116                  -2.621841       -60.47262
2.12                   -2.685773       -60.96939
2.124                  -2.751432       -61.47039
2.128                  -2.818863       -61.97559
2.132                  -2.888106       -62.48497
2.136                  -2.959203       -62.99852
2.14                   -3.032201       -63.51621
2.144                  -3.107145       -64.03802
2.148                   -3.18408       -64.56393
2.152                  -3.263058       -65.09392
2.156                  -3.344123       -65.62796
2.16                    -3.42733       -66.16605
2.164                  -3.512732       -66.70817
2.168                  -3.600383       -67.25428
2.172                  -3.690339       -67.80439
2.176                  -3.782658       -68.35845
2.18                   -3.877399       -68.91649
2.184                  -3.974626       -69.47847
2.188                  -4.074406       -70.04439
2.192                  -4.176802       -70.61423
2.196                  -4.281886       -71.18801
2.2                    -4.389731       -71.76568
2.204                  -4.500414       -72.34729
2.208                  -4.614012       -72.93281
2.212                   -4.73061       -73.52224
2.216                   -4.85029       -74.11562
2.22                   -4.973146       -74.71296
2.224                  -5.099271       -75.31424
2.228                  -5.228764       -75.91953
2.232                  -5.361731       -76.52881
2.236                  -5.498279       -77.14216
2.24                   -5.638522       -77.75958
2.244                  -5.782583       -78.38116
2.248                  -5.930591       -79.00694
2.252                  -6.082679       -79.63695
2.256                  -6.238988       -80.27134
2.26                   -6.399673       -80.91013
2.264                  -6.564892       -81.55345
2.268                  -6.734815       -82.20142
2.272                  -6.909623       -82.85414
2.276                   -7.08951       -83.51178
2.28                    -7.27468       -84.17447
2.284                  -7.465354       -84.84246
2.288                  -7.661768       -85.51589
2.292                  -7.864174       -86.19506
2.296                  -8.072843       -86.88018
2.3                    -8.288065       -87.57159
2.304                  -8.510158       -88.26962
2.308                  -8.739461       -88.97466
2.312                  -8.976343       -89.68714
2.316                  -9.221204       -90.40759
2.32                    -9.47448       -91.13656
2.324                  -9.736648       -91.87469
2.328                  -10.00823       -92.62273
2.332                  -10.28978       -93.38151
2.336                  -10.58195       -94.15204
2.34                   -10.88542        -94.9354
2.344                  -11.20097       -95.73294
2.348                  -11.52943       -96.54615
2.352                  -11.87178       -97.37679
2.356                  -12.22907       -98.22696
2.36                    -12.6025       -99.09909
2.364                  -12.99343       -99.99612
2.368                  -13.40341       -100.9215
2.372                  -13.83418       -101.8795
2.376                  -14.28779       -102.8752
2.38                   -14.76656       -103.9148
2.384                  -15.27321       -105.0061
2.388                  -15.81093       -106.1588
2.392                  -16.38349       -107.3853
2.396                  -16.99537       -108.7013
2.4                    -17.65196       -110.1276
2.404                  -18.35981       -111.6917